unknown system                          
   1.00000000000000     
     6.000000    0.000000    0.000000
     0.000000    6.000000    0.000000
     0.000000    0.000000    6.000000
   C    O 
     1     1
Direct
  0.004651  0.000000  0.000000
  0.195349  0.000000  0.000000
 
   56   56   56
  276.05      272.99      366.00      508.48      653.42      791.94      954.68      1148.7      1340.1      1501.9    
  1633.4      1732.1      1752.4      1622.7      1321.3      924.61      560.83      313.40      174.13      97.208    
  55.212      31.793      18.976      11.571      6.4792      3.2965      2.1710      1.9263      1.2826     0.46300    
 0.29066     0.58516     0.57998     0.28576     0.32336     0.73779     0.99536      1.0505      1.4941      2.5691    
  3.8799      5.3580      7.8369      12.323      19.347      29.608      44.906      68.183      103.65      157.28    
  234.00      331.88      431.89      487.62      459.16      363.19      279.89      276.59      361.14      491.44    
  625.24      754.67      907.44      1092.2      1279.2      1441.4      1572.6      1665.2      1675.7      1541.2    
  1247.8      870.64      529.20      298.10      166.77      93.698      53.577      31.023      18.547      11.294    
  6.3441      3.2659      2.1483      1.8773      1.2528     0.46990     0.29190     0.55991     0.56091     0.29191    
 0.32611     0.71606     0.97108      1.0425      1.4811      2.5274      3.8211      5.2937      7.7318      12.115    
  18.988      29.033      43.947      66.517      100.72      152.20      225.65      318.83      414.14      468.87    
  445.76      359.45      286.29      282.48      345.46      444.46      549.21      654.87      780.76      938.48    
  1109.2      1266.3      1391.9      1467.9      1456.5      1316.1      1050.0      728.20      446.62      257.75    
  146.89      84.114      49.028      28.823      17.306      10.499      5.9552      3.1691      2.0810      1.7444    
  1.1712     0.48626     0.29596     0.49510     0.51097     0.30808     0.33490     0.66045     0.90625      1.0189    
  1.4438      2.4117      3.6536      5.1035      7.4226      11.513      17.948      27.364      41.197      61.809    
  92.563      138.19      202.73      283.62      366.53      418.19      408.29      346.44      283.30      279.22    
  316.47      377.59      446.05      521.31      611.99      729.83      868.32      1004.3      1111.9      1165.3    
  1135.4      1003.5      787.29      545.16      341.99      204.88      119.94      70.829      42.479      25.505    
  15.396      9.2980      5.3620      2.9969      1.9715      1.5614      1.0559     0.50045     0.30221     0.41610    
 0.44717     0.32762     0.34910     0.59258     0.81961     0.97906      1.3846      2.2440      3.4000      4.7957    
  6.9291      10.578      16.334      24.777      37.015      54.841      80.779      118.32      170.60      235.53    
  302.21      348.56      353.17      320.08      260.57      256.85      273.01      302.19      338.45      384.03    
  442.21      518.54      614.02      712.75      790.12      821.01      786.14      682.06      530.56      372.46    
  243.11      151.30      92.027      56.556      35.050      21.510      13.053      7.8641      4.6438      2.7494    
  1.8241      1.3638     0.92577     0.49838     0.30657     0.34673     0.38580     0.34104     0.36343     0.53096    
 0.72932     0.92189      1.3037      2.0459      3.0862      4.3866      6.2865      9.4083      14.321      21.556    
  31.921      46.638      67.368      96.350      135.66      184.24      234.54      273.42      287.72      277.64    
  217.28      214.61      218.53      228.10      242.87      265.45      299.06      344.21      399.81      458.11    
  502.77      516.35      488.19      420.74      330.54      239.88      163.16      105.74      67.543      43.341    
  27.697      17.309      10.562      6.3895      3.8932      2.4436      1.6451      1.1735     0.79302     0.47093    
 0.30278     0.29714     0.33453     0.33968     0.36850     0.48088     0.64482     0.84682      1.1994      1.8294    
  2.7355      3.9027      5.5453      8.1201      12.129      18.055      26.486      38.186      54.089      75.387    
  103.21      137.05      172.74      202.65      219.56      222.10      163.70      162.32      161.80      163.11    
  167.26      176.50      193.41      218.49      248.64      277.90      298.59      302.21      284.15      246.86    
  198.63      148.71      105.07      71.685      48.222      32.164      21.033      13.313      8.1933      5.0350    
  3.1890      2.1084      1.4423     0.99532     0.66331     0.41962     0.28688     0.26362     0.29228     0.32003    
 0.35614     0.43625     0.56707     0.75701      1.0727      1.6005      2.3671      3.3793      4.7653      6.8299    
  9.9731      14.619      21.219      30.230      42.082      57.239      76.117      98.392      121.95      142.82    
  157.02      163.24      114.09      113.63      112.62      112.00      112.70      116.17      123.83      135.96    
  150.81      164.82      173.63      173.50      162.76      142.65      116.96      90.457      66.923      48.066    
  33.782      23.163      15.356      9.8154      6.1416      3.8925      2.5760      1.7722      1.2247     0.82543    
 0.54036     0.35571     0.26057     0.23716     0.25485     0.28543     0.32493     0.38926     0.49441     0.66056    
 0.93197      1.3662      1.9994      2.8535      4.0022      5.6278      8.0163      11.517      16.489      23.215    
  31.850      42.447      54.989      69.164      83.896      97.231      107.08      112.47      76.111      76.002    
  75.402      74.969      75.223      76.762      80.128      85.331      91.507      97.027      99.971      98.747    
  92.660      82.257      69.180      55.487      42.828      32.011      23.157      16.124      10.777      6.9805    
  4.4991      2.9831      2.0624      1.4531      1.0025     0.66263     0.42927     0.29341     0.23019     0.21211    
 0.21992     0.24351     0.28085     0.33797     0.42724     0.56792     0.79117      1.1389      1.6506      2.3557    
  3.2949      4.5635      6.3430      8.8929      12.492      17.339      23.478      30.794      39.079      48.006    
  56.982      65.058      71.192      74.796      49.768      49.689      49.401      49.356      49.769      50.733    
  52.267      54.241      56.288      57.836      58.235      56.915      53.563      48.291      41.654      34.452    
  27.407      20.976      15.397      10.811      7.3050      4.8506      3.2671      2.2805      1.6334      1.1588    
 0.78824     0.51286     0.33585     0.24270     0.20263     0.18819     0.18778     0.20161     0.23315     0.28654    
 0.36777     0.48694     0.66398     0.93322      1.3358      1.9042      2.6611      3.6480      4.9630      6.7740    
  9.2810      12.636      16.862      21.826      27.286      32.942      38.421      43.237      46.868      49.003    
  32.578      32.451      32.227      32.234      32.588      33.232      34.023      34.788      35.358      35.566    
  35.239      34.182      32.228      29.334      25.664      21.546      17.352      13.393      9.8994      7.0295    
  4.8617      3.3610      2.3835      1.7388      1.2696     0.89374     0.59566     0.38578     0.26369     0.20628    
 0.18129     0.16698     0.15902     0.16376     0.18917     0.24008     0.31689     0.41936     0.55712     0.75842    
  1.0638      1.5071      2.1045      2.8691      3.8412      5.1109      6.8062      9.0400      11.841      15.117    
  18.679      22.298      25.729      28.694      30.902      32.173      21.575      21.435      21.169      21.019    
  21.102      21.411      21.854      22.304      22.634      22.729      22.476      21.748      20.437      18.519    
  16.114      13.451      10.791      8.3416      6.2341      4.5377      3.2651      2.3699      1.7556      1.3119    
 0.95814     0.66389     0.43636     0.28804     0.21193     0.18069     0.16446     0.14791     0.13310     0.13098    
 0.15198     0.20034     0.27243     0.36131     0.46864     0.61502     0.83662      1.1678      1.6253      2.2104    
  2.9302      3.8217      4.9556      6.4067      8.2026      10.293      12.563      14.872      17.074      18.997    
  20.455      21.310      14.213      14.112      13.857      13.605      13.462      13.468      13.606      13.819    
  14.018      14.100      13.956      13.481      12.606      11.340      9.7924      8.1412      6.5569      5.1497    
  3.9639      3.0059      2.2638      1.7082      1.2922     0.96567     0.69598     0.47642     0.31585     0.21932    
 0.17549     0.15940     0.14695     0.12817     0.10913     0.10331     0.12139     0.16578     0.23071     0.30705    
 0.39166     0.49708     0.65207     0.88880      1.2257      1.6624      2.1924      2.8254      3.5946      4.5400    
  5.6767      6.9766      8.3779      9.8082      11.191      12.428      13.401      14.004      9.1198      9.0813    
  8.9229      8.7204      8.5278      8.3699      8.2471      8.1413      8.0251      7.8689      7.6427      7.3122    
  6.8446      6.2301      5.4999      4.7190      3.9550      3.2508      2.6227      2.0757      1.6133      1.2344    
 0.92911     0.68315     0.48611     0.33540     0.23208     0.17326     0.14741     0.13648     0.12437     0.10566    
 0.87160E-01 0.81161E-01 0.96593E-01 0.13464     0.18962     0.25304     0.32022     0.39780     0.50606     0.67069    
 0.90882      1.2222      1.6050      2.0582      2.5950      3.2303      3.9632      4.7707      5.6164      6.4634    
  7.2753      8.0044      8.5876      8.9664      5.8612      5.8729      5.8147      5.7124      5.5815      5.4279    
  5.2511      5.0485      4.8216      4.5803      4.3378      4.0974      3.8463      3.5648      3.2439      2.8920    
  2.5269      2.1624      1.8051      1.4614      1.1434     0.86565     0.63816     0.46200     0.33139     0.23873    
 0.17745     0.14121     0.12185     0.10966     0.96828E-01 0.81490E-01 0.68329E-01 0.65103E-01 0.77760E-01 0.10738    
 0.15009     0.19980     0.25291     0.31327     0.39326     0.50887     0.67198     0.88667      1.1531      1.4741    
  1.8554      2.2979      2.7894      3.3061      3.8223      4.3198      4.7844      5.1965      5.5274      5.7514    
  3.9575      3.9862      3.9717      3.9263      3.8606      3.7878      3.7226      3.6726      3.6312      3.5781    
  3.4844      3.3232      3.0808      2.7676      2.4178      2.0742      1.7653      1.4938      1.2444      1.0040    
 0.77546     0.57451     0.41620     0.30375     0.22854     0.17788     0.14203     0.11575     0.96179E-01 0.81070E-01
 0.68844E-01 0.59308E-01 0.53870E-01 0.55052E-01 0.65364E-01 0.85803E-01 0.11507     0.15077     0.19221     0.24233    
 0.30705     0.39263     0.50392     0.64491     0.82110      1.0399      1.3069      1.6182      1.9573      2.3006    
  2.6300      2.9397      3.2300      3.4940      3.7136      3.8699      2.6674      2.6832      2.6767      2.6581    
  2.6327      2.6088      2.6003      2.6176      2.6551      2.6853      2.6670      2.5623      2.3567      2.0709    
  1.7530      1.4544      1.2042     0.99959     0.82040     0.65134     0.49401     0.36153     0.26475     0.20321    
 0.16616     0.14020     0.11638     0.92579E-01 0.71147E-01 0.55066E-01 0.45633E-01 0.42385E-01 0.44106E-01 0.49668E-01
 0.58444E-01 0.70558E-01 0.87028E-01 0.10977     0.14137     0.18440     0.24011     0.30777     0.38607     0.47670    
 0.58697     0.72777     0.90656      1.1198      1.3517      1.5823      1.7986      1.9996      2.1893      2.3647    
  2.5114      2.6137      1.6371      1.6303      1.6277      1.6322      1.6319      1.6078      1.5473      1.4513    
  1.3337      1.2149      1.1126      1.0341     0.97377     0.91949     0.86026     0.79041     0.70790     0.61241    
 0.50689     0.39967     0.30276     0.22661     0.17536     0.14556     0.12814     0.11284     0.93440E-01 0.70489E-01
 0.49346E-01 0.35179E-01 0.29671E-01 0.31459E-01 0.38006E-01 0.46422E-01 0.53984E-01 0.59794E-01 0.66347E-01 0.78773E-01
 0.10201     0.13827     0.18613     0.24119     0.29863     0.35768     0.42483     0.51132     0.62516     0.76404    
 0.91583      1.0661      1.2056      1.3317      1.4434      1.5358      1.6006      1.6325      1.0181     0.99785    
 0.98787     0.99004     0.99046     0.96506     0.89238     0.76673     0.60507     0.44334     0.32196     0.26690    
 0.27710     0.32653     0.37929     0.40703     0.39865     0.35932     0.30300     0.24426     0.19319     0.15438    
 0.12811     0.11168     0.99982E-01 0.87220E-01 0.70149E-01 0.50405E-01 0.33076E-01 0.22677E-01 0.20498E-01 0.25041E-01
 0.33511E-01 0.42440E-01 0.48471E-01 0.50492E-01 0.51474E-01 0.57421E-01 0.73822E-01 0.10258     0.14130     0.18463    
 0.22724     0.26765     0.31070     0.36505     0.43662     0.52348     0.61744     0.71024     0.79785     0.87888    
 0.94994      1.0038      1.0327      1.0348     0.80243     0.78217     0.75331     0.72592     0.70565     0.69503    
 0.69576     0.70865     0.73079     0.75292     0.76031     0.73809     0.67878     0.58727     0.47974     0.37630    
 0.29201     0.23166     0.19095     0.16194     0.13839     0.11783     0.10037     0.86105E-01 0.73740E-01 0.61225E-01
 0.47589E-01 0.33990E-01 0.22989E-01 0.16870E-01 0.16494E-01 0.21122E-01 0.28624E-01 0.35922E-01 0.40201E-01 0.40819E-01
 0.40422E-01 0.43863E-01 0.55429E-01 0.76400E-01 0.10454     0.13565     0.16616     0.19565     0.22742     0.26622    
 0.31431     0.36915     0.42544     0.47999     0.53475     0.59431     0.65975     0.72434     0.77560     0.80252    
 0.61708     0.60343     0.57380     0.53911     0.51161     0.50524     0.53374     0.60372     0.70556     0.81000    
 0.87638     0.87077     0.78378     0.63634     0.46933     0.32320     0.22079     0.16261     0.13453     0.11975    
 0.10710     0.92607E-01 0.76885E-01 0.61791E-01 0.48585E-01 0.37649E-01 0.28951E-01 0.22414E-01 0.17992E-01 0.15721E-01
 0.15797E-01 0.18332E-01 0.22690E-01 0.27210E-01 0.30107E-01 0.31080E-01 0.32007E-01 0.35852E-01 0.44710E-01 0.58668E-01
 0.76218E-01 0.95595E-01 0.11610     0.13869     0.16534     0.19735     0.23364     0.27068     0.30494     0.33621    
 0.36885     0.40928     0.46063     0.51851     0.57152     0.60685     0.29973     0.29299     0.28844     0.28502    
 0.27751     0.25884     0.22441     0.17526     0.11864     0.65826E-01 0.28191E-01 0.12930E-01 0.20183E-01 0.43084E-01
 0.70875E-01 0.93467E-01 0.10521     0.10612     0.99987E-01 0.90830E-01 0.80262E-01 0.67897E-01 0.53714E-01 0.39487E-01
 0.27805E-01 0.20204E-01 0.16534E-01 0.15621E-01 0.16004E-01 0.16377E-01 0.16173E-01 0.15942E-01 0.16644E-01 0.18425E-01
 0.20541E-01 0.22696E-01 0.25861E-01 0.31244E-01 0.38803E-01 0.47389E-01 0.56302E-01 0.66299E-01 0.79169E-01 0.96708E-01
 0.11979     0.14745     0.17648     0.20286     0.22446     0.24248     0.25968     0.27718     0.29313     0.30430    
 0.30854     0.30614     0.11173     0.11045     0.12188     0.13806     0.14498     0.12535     0.64520E-01 -.41279E-01
 -.17806     -.31376     -.40804     -.42969     -.37253     -.25931     -.13021     -.23040E-01 0.42644E-01 0.68903E-01
 0.70732E-01 0.63374E-01 0.54561E-01 0.45115E-01 0.34226E-01 0.23152E-01 0.14635E-01 0.10418E-01 0.10181E-01 0.12319E-01
 0.14913E-01 0.16264E-01 0.15569E-01 0.13536E-01 0.11866E-01 0.11798E-01 0.13466E-01 0.16690E-01 0.21627E-01 0.28082E-01
 0.34696E-01 0.39810E-01 0.43351E-01 0.47468E-01 0.55209E-01 0.68681E-01 0.87947E-01 0.11068     0.13281     0.15077    
 0.16402     0.17494     0.18510     0.19183     0.18946     0.17475     0.15100     0.12693     0.17919     0.18146    
 0.18128     0.17778     0.17266     0.17028     0.17559     0.19057     0.21174     0.23101     0.23942     0.23162    
 0.20792     0.17355     0.13588     0.10154     0.74560E-01 0.56019E-01 0.44737E-01 0.38228E-01 0.33576E-01 0.28399E-01
 0.21825E-01 0.14827E-01 0.93959E-02 0.70685E-02 0.79289E-02 0.10658E-01 0.13328E-01 0.14376E-01 0.13341E-01 0.11020E-01
 0.88841E-02 0.81893E-02 0.95500E-02 0.13091E-01 0.18524E-01 0.24847E-01 0.30348E-01 0.33611E-01 0.34895E-01 0.36492E-01
 0.41490E-01 0.51835E-01 0.66969E-01 0.83871E-01 0.98664E-01 0.10912     0.11630     0.12366     0.13392     0.14661    
 0.15867     0.16741     0.17264     0.17611     0.22238     0.22550     0.21489     0.19473     0.17734     0.18158    
 0.22571     0.31622     0.43894     0.55947     0.63588     0.63794     0.56205     0.43261     0.28920     0.16748    
 0.85537E-01 0.42141E-01 0.24843E-01 0.20152E-01 0.19240E-01 0.18182E-01 0.15865E-01 0.12515E-01 0.92092E-02 0.73134E-02
 0.75119E-02 0.92006E-02 0.10907E-01 0.11380E-01 0.10395E-01 0.86938E-02 0.73209E-02 0.70607E-02 0.83335E-02 0.11307E-01
 0.15781E-01 0.20896E-01 0.25250E-01 0.27759E-01 0.28734E-01 0.30107E-01 0.34321E-01 0.42557E-01 0.53654E-01 0.64671E-01
 0.72857E-01 0.77640E-01 0.81150E-01 0.86864E-01 0.97518E-01 0.11392     0.13522     0.15967     0.18487     0.20732    
 0.66074E-01 0.68405E-01 0.69623E-01 0.66407E-01 0.58293E-01 0.47078E-01 0.34496E-01 0.20643E-01 0.47064E-02 -.12761E-01
 -.28438E-01 -.37357E-01 -.35934E-01 -.24627E-01 -.82384E-02 0.65135E-02 0.14706E-01 0.15773E-01 0.13069E-01 0.10786E-01
 0.10843E-01 0.12250E-01 0.12982E-01 0.12066E-01 0.10069E-01 0.81950E-02 0.73021E-02 0.74922E-02 0.81527E-02 0.84019E-02
 0.78450E-02 0.69906E-02 0.67307E-02 0.74299E-02 0.88011E-02 0.10649E-01 0.13232E-01 0.16598E-01 0.19956E-01 0.22329E-01
 0.23863E-01 0.26080E-01 0.30548E-01 0.37371E-01 0.44965E-01 0.51177E-01 0.54813E-01 0.56622E-01 0.59013E-01 0.64234E-01
 0.72073E-01 0.79244E-01 0.81701E-01 0.78181E-01 0.71583E-01 0.66658E-01 -.50435E-01 -.47848E-01 -.36235E-01 -.24875E-01
 -.24037E-01 -.45032E-01 -.99244E-01 -.19235     -.31542     -.44063     -.52873     -.54669     -.48535     -.36510    
 -.22579     -.10714     -.31424E-01 0.20272E-02 0.91633E-02 0.76410E-02 0.72017E-02 0.89685E-02 0.10580E-01 0.10664E-01
 0.95418E-02 0.79929E-02 0.66093E-02 0.58540E-02 0.58235E-02 0.60295E-02 0.60069E-02 0.60755E-02 0.69336E-02 0.85095E-02
 0.98812E-02 0.10558E-01 0.11240E-01 0.12856E-01 0.15316E-01 0.17836E-01 0.20283E-01 0.23518E-01 0.28225E-01 0.33843E-01
 0.38892E-01 0.42164E-01 0.43665E-01 0.44831E-01 0.47804E-01 0.53466E-01 0.59167E-01 0.58639E-01 0.45745E-01 0.19877E-01
 -.11820E-01 -.38084E-01 0.55860E-01 0.60439E-01 0.60694E-01 0.54057E-01 0.43448E-01 0.35282E-01 0.34307E-01 0.40004E-01
 0.47534E-01 0.51635E-01 0.49818E-01 0.43024E-01 0.34419E-01 0.27379E-01 0.23451E-01 0.21472E-01 0.18949E-01 0.14710E-01
 0.10054E-01 0.71491E-02 0.67096E-02 0.76118E-02 0.84036E-02 0.84901E-02 0.79334E-02 0.69000E-02 0.56759E-02 0.47429E-02
 0.43845E-02 0.44437E-02 0.47918E-02 0.57473E-02 0.75584E-02 0.96185E-02 0.10786E-01 0.10650E-01 0.10098E-01 0.10417E-01
 0.12112E-01 0.14835E-01 0.18185E-01 0.22146E-01 0.26689E-01 0.31262E-01 0.34905E-01 0.36996E-01 0.38019E-01 0.39615E-01
 0.43549E-01 0.50116E-01 0.57325E-01 0.61904E-01 0.61679E-01 0.57517E-01 0.53086E-01 0.52260E-01 0.15964     0.16547    
 0.15490     0.13163     0.11038     0.11341     0.16023     0.25556     0.38243     0.50529     0.58293     0.58641    
 0.51322     0.38870     0.25265     0.13952     0.65068E-01 0.26376E-01 0.11122E-01 0.71737E-02 0.69778E-02 0.73332E-02
 0.74817E-02 0.74215E-02 0.70661E-02 0.62784E-02 0.52336E-02 0.43637E-02 0.39157E-02 0.38659E-02 0.43352E-02 0.56863E-02
 0.78977E-02 0.10091E-01 0.11121E-01 0.10703E-01 0.97509E-02 0.95884E-02 0.10960E-01 0.13774E-01 0.17517E-01 0.21732E-01
 0.26110E-01 0.30240E-01 0.33461E-01 0.35318E-01 0.36364E-01 0.38260E-01 0.42610E-01 0.49646E-01 0.58437E-01 0.68555E-01
 0.81154E-01 0.97989E-01 0.11921     0.14180     0.55860E-01 0.60439E-01 0.60694E-01 0.54057E-01 0.43448E-01 0.35282E-01
 0.34307E-01 0.40004E-01 0.47534E-01 0.51635E-01 0.49818E-01 0.43024E-01 0.34419E-01 0.27379E-01 0.23451E-01 0.21472E-01
 0.18949E-01 0.14710E-01 0.10054E-01 0.71491E-02 0.67096E-02 0.76118E-02 0.84036E-02 0.84901E-02 0.79334E-02 0.69000E-02
 0.56759E-02 0.47429E-02 0.43845E-02 0.44437E-02 0.47918E-02 0.57473E-02 0.75584E-02 0.96185E-02 0.10786E-01 0.10650E-01
 0.10098E-01 0.10417E-01 0.12112E-01 0.14835E-01 0.18185E-01 0.22146E-01 0.26689E-01 0.31262E-01 0.34905E-01 0.36996E-01
 0.38019E-01 0.39615E-01 0.43549E-01 0.50116E-01 0.57325E-01 0.61904E-01 0.61679E-01 0.57517E-01 0.53086E-01 0.52260E-01
 -.50435E-01 -.47848E-01 -.36235E-01 -.24875E-01 -.24037E-01 -.45032E-01 -.99244E-01 -.19235     -.31542     -.44063    
 -.52873     -.54669     -.48535     -.36510     -.22579     -.10714     -.31424E-01 0.20272E-02 0.91633E-02 0.76410E-02
 0.72017E-02 0.89685E-02 0.10580E-01 0.10664E-01 0.95418E-02 0.79929E-02 0.66093E-02 0.58540E-02 0.58235E-02 0.60295E-02
 0.60069E-02 0.60755E-02 0.69336E-02 0.85095E-02 0.98812E-02 0.10558E-01 0.11240E-01 0.12856E-01 0.15316E-01 0.17836E-01
 0.20283E-01 0.23518E-01 0.28225E-01 0.33843E-01 0.38892E-01 0.42164E-01 0.43665E-01 0.44831E-01 0.47804E-01 0.53466E-01
 0.59167E-01 0.58639E-01 0.45745E-01 0.19877E-01 -.11820E-01 -.38084E-01 0.66074E-01 0.68405E-01 0.69623E-01 0.66407E-01
 0.58293E-01 0.47078E-01 0.34496E-01 0.20643E-01 0.47064E-02 -.12761E-01 -.28438E-01 -.37357E-01 -.35934E-01 -.24627E-01
 -.82384E-02 0.65135E-02 0.14706E-01 0.15773E-01 0.13069E-01 0.10786E-01 0.10843E-01 0.12250E-01 0.12982E-01 0.12066E-01
 0.10069E-01 0.81950E-02 0.73021E-02 0.74922E-02 0.81527E-02 0.84019E-02 0.78450E-02 0.69906E-02 0.67307E-02 0.74299E-02
 0.88011E-02 0.10649E-01 0.13232E-01 0.16598E-01 0.19956E-01 0.22329E-01 0.23863E-01 0.26080E-01 0.30548E-01 0.37371E-01
 0.44965E-01 0.51177E-01 0.54813E-01 0.56622E-01 0.59013E-01 0.64234E-01 0.72073E-01 0.79244E-01 0.81701E-01 0.78181E-01
 0.71583E-01 0.66658E-01 0.22238     0.22550     0.21489     0.19473     0.17734     0.18158     0.22571     0.31622    
 0.43894     0.55947     0.63588     0.63794     0.56205     0.43261     0.28920     0.16748     0.85537E-01 0.42141E-01
 0.24843E-01 0.20152E-01 0.19240E-01 0.18182E-01 0.15865E-01 0.12515E-01 0.92092E-02 0.73134E-02 0.75119E-02 0.92006E-02
 0.10907E-01 0.11380E-01 0.10395E-01 0.86938E-02 0.73209E-02 0.70607E-02 0.83335E-02 0.11307E-01 0.15781E-01 0.20896E-01
 0.25250E-01 0.27759E-01 0.28734E-01 0.30107E-01 0.34321E-01 0.42557E-01 0.53654E-01 0.64671E-01 0.72857E-01 0.77640E-01
 0.81150E-01 0.86864E-01 0.97518E-01 0.11392     0.13522     0.15967     0.18487     0.20732     0.17919     0.18146    
 0.18128     0.17778     0.17266     0.17028     0.17559     0.19057     0.21174     0.23101     0.23942     0.23162    
 0.20792     0.17355     0.13588     0.10154     0.74560E-01 0.56019E-01 0.44737E-01 0.38228E-01 0.33576E-01 0.28399E-01
 0.21825E-01 0.14827E-01 0.93959E-02 0.70685E-02 0.79289E-02 0.10658E-01 0.13328E-01 0.14376E-01 0.13341E-01 0.11020E-01
 0.88841E-02 0.81893E-02 0.95500E-02 0.13091E-01 0.18524E-01 0.24847E-01 0.30348E-01 0.33611E-01 0.34895E-01 0.36492E-01
 0.41490E-01 0.51835E-01 0.66969E-01 0.83871E-01 0.98664E-01 0.10912     0.11630     0.12366     0.13392     0.14661    
 0.15867     0.16741     0.17264     0.17611     0.11173     0.11045     0.12188     0.13806     0.14498     0.12535    
 0.64520E-01 -.41279E-01 -.17806     -.31376     -.40804     -.42969     -.37253     -.25931     -.13021     -.23040E-01
 0.42644E-01 0.68903E-01 0.70732E-01 0.63374E-01 0.54561E-01 0.45115E-01 0.34226E-01 0.23152E-01 0.14635E-01 0.10418E-01
 0.10181E-01 0.12319E-01 0.14913E-01 0.16264E-01 0.15569E-01 0.13536E-01 0.11866E-01 0.11798E-01 0.13466E-01 0.16690E-01
 0.21627E-01 0.28082E-01 0.34696E-01 0.39810E-01 0.43351E-01 0.47468E-01 0.55209E-01 0.68681E-01 0.87947E-01 0.11068    
 0.13281     0.15077     0.16402     0.17494     0.18510     0.19183     0.18946     0.17475     0.15100     0.12693    
 0.29973     0.29299     0.28844     0.28502     0.27751     0.25884     0.22441     0.17526     0.11864     0.65826E-01
 0.28191E-01 0.12930E-01 0.20183E-01 0.43084E-01 0.70875E-01 0.93467E-01 0.10521     0.10612     0.99987E-01 0.90830E-01
 0.80262E-01 0.67897E-01 0.53714E-01 0.39487E-01 0.27805E-01 0.20204E-01 0.16534E-01 0.15621E-01 0.16004E-01 0.16377E-01
 0.16173E-01 0.15942E-01 0.16644E-01 0.18425E-01 0.20541E-01 0.22696E-01 0.25861E-01 0.31244E-01 0.38803E-01 0.47389E-01
 0.56302E-01 0.66299E-01 0.79169E-01 0.96708E-01 0.11979     0.14745     0.17648     0.20286     0.22446     0.24248    
 0.25968     0.27718     0.29313     0.30430     0.30854     0.30614     0.61708     0.60343     0.57380     0.53911    
 0.51161     0.50524     0.53374     0.60372     0.70556     0.81000     0.87638     0.87077     0.78378     0.63634    
 0.46933     0.32320     0.22079     0.16261     0.13453     0.11975     0.10710     0.92607E-01 0.76885E-01 0.61791E-01
 0.48585E-01 0.37649E-01 0.28951E-01 0.22414E-01 0.17992E-01 0.15721E-01 0.15797E-01 0.18332E-01 0.22690E-01 0.27210E-01
 0.30107E-01 0.31080E-01 0.32007E-01 0.35852E-01 0.44710E-01 0.58668E-01 0.76218E-01 0.95595E-01 0.11610     0.13869    
 0.16534     0.19735     0.23364     0.27068     0.30494     0.33621     0.36885     0.40928     0.46063     0.51851    
 0.57152     0.60685     0.80243     0.78217     0.75331     0.72592     0.70565     0.69503     0.69576     0.70865    
 0.73079     0.75292     0.76031     0.73809     0.67878     0.58727     0.47974     0.37630     0.29201     0.23166    
 0.19095     0.16194     0.13839     0.11783     0.10037     0.86105E-01 0.73740E-01 0.61225E-01 0.47589E-01 0.33990E-01
 0.22989E-01 0.16870E-01 0.16494E-01 0.21122E-01 0.28624E-01 0.35922E-01 0.40201E-01 0.40819E-01 0.40422E-01 0.43863E-01
 0.55429E-01 0.76400E-01 0.10454     0.13565     0.16616     0.19565     0.22742     0.26622     0.31431     0.36915    
 0.42544     0.47999     0.53475     0.59431     0.65975     0.72434     0.77560     0.80252      1.0181     0.99785    
 0.98787     0.99004     0.99046     0.96506     0.89238     0.76673     0.60507     0.44334     0.32196     0.26690    
 0.27710     0.32653     0.37929     0.40703     0.39865     0.35932     0.30300     0.24426     0.19319     0.15438    
 0.12811     0.11168     0.99982E-01 0.87220E-01 0.70149E-01 0.50405E-01 0.33076E-01 0.22677E-01 0.20498E-01 0.25041E-01
 0.33511E-01 0.42440E-01 0.48471E-01 0.50492E-01 0.51474E-01 0.57421E-01 0.73822E-01 0.10258     0.14130     0.18463    
 0.22724     0.26765     0.31070     0.36505     0.43662     0.52348     0.61744     0.71024     0.79785     0.87888    
 0.94994      1.0038      1.0327      1.0348      1.6371      1.6303      1.6277      1.6322      1.6319      1.6078    
  1.5473      1.4513      1.3337      1.2149      1.1126      1.0341     0.97377     0.91949     0.86026     0.79041    
 0.70790     0.61241     0.50689     0.39967     0.30276     0.22661     0.17536     0.14556     0.12814     0.11284    
 0.93440E-01 0.70489E-01 0.49346E-01 0.35179E-01 0.29671E-01 0.31459E-01 0.38006E-01 0.46422E-01 0.53984E-01 0.59794E-01
 0.66347E-01 0.78773E-01 0.10201     0.13827     0.18613     0.24119     0.29863     0.35768     0.42483     0.51132    
 0.62516     0.76404     0.91583      1.0661      1.2056      1.3317      1.4434      1.5358      1.6006      1.6325    
  2.6674      2.6832      2.6767      2.6581      2.6327      2.6088      2.6003      2.6176      2.6551      2.6853    
  2.6670      2.5623      2.3567      2.0709      1.7530      1.4544      1.2042     0.99959     0.82040     0.65134    
 0.49401     0.36153     0.26475     0.20321     0.16616     0.14020     0.11638     0.92579E-01 0.71147E-01 0.55066E-01
 0.45633E-01 0.42385E-01 0.44106E-01 0.49668E-01 0.58444E-01 0.70558E-01 0.87028E-01 0.10977     0.14137     0.18440    
 0.24011     0.30777     0.38607     0.47670     0.58697     0.72777     0.90656      1.1198      1.3517      1.5823    
  1.7986      1.9996      2.1893      2.3647      2.5114      2.6137      3.9575      3.9862      3.9717      3.9263    
  3.8606      3.7878      3.7226      3.6726      3.6312      3.5781      3.4844      3.3232      3.0808      2.7676    
  2.4178      2.0742      1.7653      1.4938      1.2444      1.0040     0.77546     0.57451     0.41620     0.30375    
 0.22854     0.17788     0.14203     0.11575     0.96179E-01 0.81070E-01 0.68844E-01 0.59308E-01 0.53870E-01 0.55052E-01
 0.65364E-01 0.85803E-01 0.11507     0.15077     0.19221     0.24233     0.30705     0.39263     0.50392     0.64491    
 0.82110      1.0399      1.3069      1.6182      1.9573      2.3006      2.6300      2.9397      3.2300      3.4940    
  3.7136      3.8699      5.8612      5.8729      5.8147      5.7124      5.5815      5.4279      5.2511      5.0485    
  4.8216      4.5803      4.3378      4.0974      3.8463      3.5648      3.2439      2.8920      2.5269      2.1624    
  1.8051      1.4614      1.1434     0.86565     0.63816     0.46200     0.33139     0.23873     0.17745     0.14121    
 0.12185     0.10966     0.96828E-01 0.81490E-01 0.68329E-01 0.65103E-01 0.77760E-01 0.10738     0.15009     0.19980    
 0.25291     0.31327     0.39326     0.50887     0.67198     0.88667      1.1531      1.4741      1.8554      2.2979    
  2.7894      3.3061      3.8223      4.3198      4.7844      5.1965      5.5274      5.7514      9.1198      9.0813    
  8.9229      8.7204      8.5278      8.3699      8.2471      8.1413      8.0251      7.8689      7.6427      7.3122    
  6.8446      6.2301      5.4999      4.7190      3.9550      3.2508      2.6227      2.0757      1.6133      1.2344    
 0.92911     0.68315     0.48611     0.33540     0.23208     0.17326     0.14741     0.13648     0.12437     0.10566    
 0.87160E-01 0.81161E-01 0.96593E-01 0.13464     0.18962     0.25304     0.32022     0.39780     0.50606     0.67069    