unknown system                          
   1.00000000000000     
     6.000000    0.000000    0.000000
     0.000000    6.000000    0.000000
     0.000000    0.000000    6.000000
   C    O 
     1     1
Direct
  0.004651  0.000000  0.000000
  0.195349  0.000000  0.000000
 
   56   56   56
 0.27604693697E+03 0.27298744623E+03 0.36599572805E+03 0.50848159905E+03 0.65342244051E+03
 0.79193833027E+03 0.95468236359E+03 0.11487111513E+04 0.13400909420E+04 0.15018885579E+04
 0.16333904761E+04 0.17321213463E+04 0.17524031884E+04 0.16226503186E+04 0.13213025683E+04
 0.92461203259E+03 0.56082972247E+03 0.31340143064E+03 0.17412757453E+03 0.97208087869E+02
 0.55212007557E+02 0.31793104979E+02 0.18976080269E+02 0.11571394797E+02 0.64791552515E+01
 0.32965093306E+01 0.21710148840E+01 0.19262899375E+01 0.12825738635E+01 0.46300067082E+00
 0.29066274833E+00 0.58515592833E+00 0.57997869951E+00 0.28575606857E+00 0.32335743823E+00
 0.73778928907E+00 0.99536475873E+00 0.10504571052E+01 0.14940961562E+01 0.25691094464E+01
 0.38799276348E+01 0.53579687299E+01 0.78369164864E+01 0.12322961164E+02 0.19346637021E+02
 0.29608490481E+02 0.44905759434E+02 0.68183492440E+02 0.10364715901E+03 0.15727647091E+03
 0.23399653155E+03 0.33187795062E+03 0.43188688903E+03 0.48762094308E+03 0.45916067653E+03
 0.36319246254E+03 0.27988853916E+03 0.27659087127E+03 0.36114233581E+03 0.49144048561E+03
 0.62524233997E+03 0.75466566683E+03 0.90743829130E+03 0.10921906829E+04 0.12792456694E+04
 0.14414333881E+04 0.15725828978E+04 0.16652056509E+04 0.16756636931E+04 0.15411784260E+04
 0.12477739315E+04 0.87063521406E+03 0.52920211301E+03 0.29809752894E+03 0.16676955476E+03
 0.93698115838E+02 0.53577068887E+02 0.31022574580E+02 0.18546790291E+02 0.11293698314E+02
 0.63440994135E+01 0.32659200766E+01 0.21483156060E+01 0.18773388395E+01 0.12528020183E+01
 0.46990212900E+00 0.29189750972E+00 0.55991047398E+00 0.56090840923E+00 0.29191171511E+00
 0.32611309261E+00 0.71605529180E+00 0.97108392892E+00 0.10425427930E+01 0.14811364353E+01
 0.25273754186E+01 0.38211063199E+01 0.52937323916E+01 0.77317936095E+01 0.12115151883E+02
 0.18988094713E+02 0.29032871559E+02 0.43946719925E+02 0.66516816363E+02 0.10072193625E+03
 0.15220382194E+03 0.22564543612E+03 0.31882967182E+03 0.41414067042E+03 0.46887479515E+03
 0.44576283611E+03 0.35945010856E+03 0.28628697493E+03 0.28248328120E+03 0.34545909486E+03
 0.44445834294E+03 0.54920795135E+03 0.65487441299E+03 0.78076464741E+03 0.93848339582E+03
 0.11092249647E+04 0.12662970181E+04 0.13919352573E+04 0.14679154818E+04 0.14564605041E+04
 0.13161303519E+04 0.10499796295E+04 0.72819557881E+03 0.44662272414E+03 0.25775300825E+03
 0.14688791718E+03 0.84114463735E+02 0.49027509321E+02 0.28822786906E+02 0.17305669420E+02
 0.10498533957E+02 0.59551863260E+01 0.31690567629E+01 0.20809868536E+01 0.17444334203E+01
 0.11711528779E+01 0.48625991921E+00 0.29596266290E+00 0.49509877260E+00 0.51096972446E+00
 0.30808430287E+00 0.33490438721E+00 0.66045026606E+00 0.90625126270E+00 0.10188672767E+01
 0.14437970090E+01 0.24116702123E+01 0.36536426068E+01 0.51035236438E+01 0.74226441082E+01
 0.11512925046E+02 0.17947937486E+02 0.27363882258E+02 0.41196979949E+02 0.61809090580E+02
 0.92563433116E+02 0.13818850608E+03 0.20273205099E+03 0.28361821534E+03 0.36652877935E+03
 0.41818855167E+03 0.40828825725E+03 0.34644165720E+03 0.28330331926E+03 0.27921628828E+03
 0.31646635954E+03 0.37759127798E+03 0.44605480677E+03 0.52131053949E+03 0.61198710191E+03
 0.72982527083E+03 0.86832062175E+03 0.10042944378E+04 0.11119255751E+04 0.11653243081E+04
 0.11354290509E+04 0.10035449610E+04 0.78729406024E+03 0.54515947680E+03 0.34198998528E+03
 0.20488442422E+03 0.11993581163E+03 0.70829110818E+02 0.42479372136E+02 0.25504941112E+02
 0.15396235168E+02 0.92980357145E+01 0.53619878188E+01 0.29968862090E+01 0.19714575601E+01
 0.15614131945E+01 0.10558808327E+01 0.50045070756E+00 0.30221063290E+00 0.41610307622E+00
 0.44717332749E+00 0.32762294995E+00 0.34910431928E+00 0.59258126593E+00 0.81960987434E+00
 0.97906211495E+00 0.13846009838E+01 0.22440473608E+01 0.33999638534E+01 0.47956725007E+01
 0.69291348316E+01 0.10578369349E+02 0.16333879855E+02 0.24776837022E+02 0.37015190777E+02
 0.54841157456E+02 0.80778927656E+02 0.11832338228E+03 0.17059636060E+03 0.23552516426E+03
 0.30220647423E+03 0.34856428235E+03 0.35316760233E+03 0.32008134633E+03 0.26056702916E+03
 0.25685054003E+03 0.27300546286E+03 0.30219220383E+03 0.33845133192E+03 0.38402886397E+03
 0.44220944488E+03 0.51853721236E+03 0.61401825437E+03 0.71275417334E+03 0.79011506470E+03
 0.82101272916E+03 0.78614169314E+03 0.68205869664E+03 0.53055543116E+03 0.37245873579E+03
 0.24311242032E+03 0.15130098579E+03 0.92027099234E+02 0.56555799962E+02 0.35050094534E+02
 0.21509852765E+02 0.13052864789E+02 0.78641349877E+01 0.46438428488E+01 0.27494437021E+01
 0.18240676277E+01 0.13638478658E+01 0.92577215317E+00 0.49837844037E+00 0.30657365755E+00
 0.34672549905E+00 0.38580110698E+00 0.34103935504E+00 0.36343494067E+00 0.53096060294E+00
 0.72932087301E+00 0.92188692499E+00 0.13037149901E+01 0.20458512555E+01 0.30862487790E+01
 0.43865738453E+01 0.62864651073E+01 0.94082827198E+01 0.14321451526E+02 0.21556173562E+02
 0.31920735867E+02 0.46637909061E+02 0.67368144577E+02 0.96350197253E+02 0.13566148002E+03
 0.18423718258E+03 0.23454154518E+03 0.27341637519E+03 0.28772418497E+03 0.27763701533E+03
 0.21727904201E+03 0.21461470787E+03 0.21853029785E+03 0.22810424275E+03 0.24286500043E+03
 0.26544966603E+03 0.29906350955E+03 0.34420770164E+03 0.39980980460E+03 0.45810777776E+03
 0.50276804218E+03 0.51634807990E+03 0.48819161069E+03 0.42073779874E+03 0.33053688335E+03
 0.23988141387E+03 0.16315809970E+03 0.10574336826E+03 0.67542820746E+02 0.43341361762E+02
 0.27696796994E+02 0.17309250870E+02 0.10561691523E+02 0.63895305470E+01 0.38931756945E+01
 0.24435912665E+01 0.16450979515E+01 0.11735420273E+01 0.79301909880E+00 0.47092913543E+00
 0.30277920792E+00 0.29714136934E+00 0.33452647637E+00 0.33967795626E+00 0.36849700936E+00
 0.48087568459E+00 0.64482041441E+00 0.84681554295E+00 0.11993880184E+01 0.18294336787E+01
 0.27354973165E+01 0.39027117586E+01 0.55452918507E+01 0.81201378643E+01 0.12129305766E+02
 0.18054542508E+02 0.26485594378E+02 0.38185554192E+02 0.54088947198E+02 0.75387420756E+02
 0.10320673113E+03 0.13705087634E+03 0.17274174922E+03 0.20265073777E+03 0.21955583490E+03
 0.22210292889E+03 0.16369718960E+03 0.16232105765E+03 0.16179770977E+03 0.16310931338E+03
 0.16726314616E+03 0.17650411492E+03 0.19340648542E+03 0.21849024175E+03 0.24864474331E+03
 0.27790173314E+03 0.29859135261E+03 0.30221199546E+03 0.28415287763E+03 0.24686354799E+03
 0.19862633768E+03 0.14871042341E+03 0.10506955093E+03 0.71684694447E+02 0.48221709467E+02
 0.32163924731E+02 0.21032898835E+02 0.13313156503E+02 0.81932625781E+01 0.50349749038E+01
 0.31889797857E+01 0.21083687094E+01 0.14423416240E+01 0.99531605293E+00 0.66330955410E+00
 0.41961765219E+00 0.28687985755E+00 0.26361640208E+00 0.29228282668E+00 0.32003044432E+00
 0.35613938928E+00 0.43625195354E+00 0.56707033959E+00 0.75700700117E+00 0.10727347867E+01
 0.16005287248E+01 0.23670520601E+01 0.33792605012E+01 0.47653114018E+01 0.68298654395E+01
 0.99730666589E+01 0.14619384328E+02 0.21219426025E+02 0.30229791094E+02 0.42081641579E+02
 0.57239082181E+02 0.76117244641E+02 0.98392396577E+02 0.12195141445E+03 0.14281726783E+03
 0.15702138683E+03 0.16323541893E+03 0.11408546997E+03 0.11362959541E+03 0.11262036532E+03
 0.11199891917E+03 0.11270235030E+03 0.11616663640E+03 0.12383302859E+03 0.13596187430E+03
 0.15081280452E+03 0.16482343320E+03 0.17363129494E+03 0.17350314411E+03 0.16276240462E+03
 0.14264645458E+03 0.11695697202E+03 0.90457047801E+02 0.66923246952E+02 0.48065944186E+02
 0.33781587487E+02 0.23163268241E+02 0.15356301088E+02 0.98154312156E+01 0.61416131773E+01
 0.38924747484E+01 0.25760156726E+01 0.17721997023E+01 0.12246907232E+01 0.82542965410E+00
 0.54036455104E+00 0.35570698115E+00 0.26056875725E+00 0.23716117338E+00 0.25484984475E+00
 0.28542716542E+00 0.32492834549E+00 0.38925740574E+00 0.49441096020E+00 0.66055943500E+00
 0.93196506809E+00 0.13661831137E+01 0.19993570915E+01 0.28534561070E+01 0.40022449972E+01
 0.56277614014E+01 0.80162722915E+01 0.11517366214E+02 0.16488605770E+02 0.23215358032E+02
 0.31850193771E+02 0.42446678464E+02 0.54989321708E+02 0.69163834281E+02 0.83896099742E+02
 0.97231252309E+02 0.10708295446E+03 0.11246842794E+03 0.76111425228E+02 0.76002300546E+02
 0.75401546749E+02 0.74969467449E+02 0.75222859115E+02 0.76761845794E+02 0.80127657451E+02
 0.85330512811E+02 0.91507040859E+02 0.97026891003E+02 0.99971267152E+02 0.98746768664E+02
 0.92659640801E+02 0.82256680703E+02 0.69179538472E+02 0.55487023795E+02 0.42828055544E+02
 0.32010967229E+02 0.23156927174E+02 0.16124012476E+02 0.10776752234E+02 0.69804632022E+01
 0.44991324431E+01 0.29830899649E+01 0.20623693267E+01 0.14531046813E+01 0.10024961187E+01
 0.66262918782E+00 0.42926960249E+00 0.29340697687E+00 0.23018724753E+00 0.21210546027E+00
 0.21992332062E+00 0.24351195496E+00 0.28085194859E+00 0.33796903047E+00 0.42723822959E+00
 0.56792149731E+00 0.79116872213E+00 0.11389238832E+01 0.16505999085E+01 0.23556637385E+01
 0.32949102020E+01 0.45635199428E+01 0.63429664091E+01 0.88928813305E+01 0.12491586023E+02
 0.17339054738E+02 0.23477537022E+02 0.30794096661E+02 0.39078948936E+02 0.48006271437E+02
 0.56982058190E+02 0.65058000473E+02 0.71191517151E+02 0.74796386950E+02 0.49767676804E+02
 0.49689037612E+02 0.49401378707E+02 0.49356261877E+02 0.49769397199E+02 0.50732632978E+02
 0.52266752252E+02 0.54240822433E+02 0.56287769742E+02 0.57835896457E+02 0.58235204280E+02
 0.56915172593E+02 0.53563489463E+02 0.48290860651E+02 0.41654447555E+02 0.34452248692E+02
 0.27406510506E+02 0.20976305131E+02 0.15397365891E+02 0.10811255797E+02 0.73049967815E+01
 0.48505500824E+01 0.32670588787E+01 0.22805265680E+01 0.16333779071E+01 0.11588427815E+01
 0.78824123714E+00 0.51286178464E+00 0.33584994106E+00 0.24269683560E+00 0.20262710325E+00
 0.18819180618E+00 0.18778005315E+00 0.20161290510E+00 0.23315034526E+00 0.28653624910E+00
 0.36776915089E+00 0.48694180190E+00 0.66398151869E+00 0.93322264970E+00 0.13358432353E+01
 0.19041929256E+01 0.26611309292E+01 0.36480039630E+01 0.49630228591E+01 0.67739603540E+01
 0.92810182342E+01 0.12636336518E+02 0.16862352475E+02 0.21826398864E+02 0.27286279005E+02
 0.32942165534E+02 0.38421252422E+02 0.43237159160E+02 0.46868452603E+02 0.49003482075E+02
 0.32577699534E+02 0.32450544924E+02 0.32227251119E+02 0.32234453698E+02 0.32588478122E+02
 0.33232391592E+02 0.34022513191E+02 0.34788081602E+02 0.35357831754E+02 0.35566160908E+02
 0.35238838999E+02 0.34182229273E+02 0.32227675787E+02 0.29334122864E+02 0.25663772278E+02
 0.21545607396E+02 0.17351582131E+02 0.13393339346E+02 0.98994168988E+01 0.70294520190E+01
 0.48616956368E+01 0.33609949252E+01 0.23834636544E+01 0.17388244938E+01 0.12695516688E+01
 0.89374198626E+00 0.59566192775E+00 0.38578402608E+00 0.26369125186E+00 0.20628047072E+00
 0.18129418686E+00 0.16697781237E+00 0.15901513541E+00 0.16375835890E+00 0.18917395977E+00
 0.24007809317E+00 0.31689003098E+00 0.41936296262E+00 0.55712199770E+00 0.75842429359E+00
 0.10638174797E+01 0.15070794635E+01 0.21045305460E+01 0.28690770926E+01 0.38411747379E+01
 0.51108913922E+01 0.68061522261E+01 0.90400468428E+01 0.11841277965E+02 0.15117016233E+02
 0.18678601371E+02 0.22297854001E+02 0.25729465350E+02 0.28694161157E+02 0.30902054229E+02
 0.32172955941E+02 0.21575364084E+02 0.21435465698E+02 0.21169440358E+02 0.21018505456E+02
 0.21101636864E+02 0.21410865990E+02 0.21854089921E+02 0.22303945384E+02 0.22633517662E+02
 0.22728801902E+02 0.22475779780E+02 0.21748188923E+02 0.20436683606E+02 0.18519361813E+02
 0.16113613846E+02 0.13451263793E+02 0.10791388836E+02 0.83416313948E+01 0.62341450778E+01
 0.45376573958E+01 0.32650849849E+01 0.23698735625E+01 0.17556017394E+01 0.13119487828E+01
 0.95814122970E+00 0.66388993874E+00 0.43636256013E+00 0.28804031746E+00 0.21192905612E+00
 0.18069228978E+00 0.16446159608E+00 0.14791365887E+00 0.13309705513E+00 0.13097519314E+00
 0.15197818118E+00 0.20034490597E+00 0.27242727438E+00 0.36131129107E+00 0.46864139647E+00
 0.61502303353E+00 0.83662029065E+00 0.11677750207E+01 0.16252542805E+01 0.22103823394E+01
 0.29301963170E+01 0.38216689727E+01 0.49556366497E+01 0.64066650267E+01 0.82026435752E+01
 0.10292999231E+02 0.12562811494E+02 0.14872310122E+02 0.17073880942E+02 0.18997299479E+02
 0.20454794897E+02 0.21310422639E+02 0.14213201969E+02 0.14112403194E+02 0.13857348228E+02
 0.13605319676E+02 0.13461983151E+02 0.13467589574E+02 0.13606151242E+02 0.13818816274E+02
 0.14017850317E+02 0.14100140492E+02 0.13956164910E+02 0.13481335206E+02 0.12605952701E+02
 0.11339563521E+02 0.97923845871E+01 0.81411752066E+01 0.65569372911E+01 0.51496672916E+01
 0.39638717195E+01 0.30058724768E+01 0.22637754475E+01 0.17081966418E+01 0.12921972731E+01
 0.96567137327E+00 0.69598044172E+00 0.47642270295E+00 0.31584698324E+00 0.21931995113E+00
 0.17548647605E+00 0.15940053972E+00 0.14695296707E+00 0.12817337644E+00 0.10912694272E+00
 0.10331071952E+00 0.12138531428E+00 0.16577566734E+00 0.23071429484E+00 0.30704718174E+00
 0.39165802424E+00 0.49708264694E+00 0.65207036150E+00 0.88879655341E+00 0.12257486968E+01
 0.16623622652E+01 0.21924414226E+01 0.28254419897E+01 0.35946219036E+01 0.45399592815E+01
 0.56767123563E+01 0.69766497992E+01 0.83779303248E+01 0.98082224598E+01 0.11190671426E+02
 0.12428274398E+02 0.13400642424E+02 0.14003818738E+02 0.91198362359E+01 0.90813235449E+01
 0.89228668998E+01 0.87203916881E+01 0.85277536128E+01 0.83699071286E+01 0.82470600080E+01
 0.81413135847E+01 0.80250607131E+01 0.78688936951E+01 0.76427020044E+01 0.73121694102E+01
 0.68446272859E+01 0.62301038084E+01 0.54998670652E+01 0.47189954340E+01 0.39550188015E+01
 0.32507836538E+01 0.26226761084E+01 0.20757170069E+01 0.16133048977E+01 0.12343674796E+01
 0.92911314312E+00 0.68314793162E+00 0.48610728735E+00 0.33540336311E+00 0.23208337093E+00
 0.17326307963E+00 0.14740803551E+00 0.13647620191E+00 0.12437178528E+00 0.10566069664E+00
 0.87159737227E-01 0.81160564375E-01 0.96593363074E-01 0.13464159991E+00 0.18962167083E+00
 0.25304378665E+00 0.32022269622E+00 0.39780189851E+00 0.50605631357E+00 0.67068601247E+00
 0.90881561802E+00 0.12221981517E+01 0.16049877842E+01 0.20581908530E+01 0.25950243989E+01
 0.32302594418E+01 0.39631939217E+01 0.47707445136E+01 0.56164382562E+01 0.64634456616E+01
 0.72753022589E+01 0.80043539505E+01 0.85876038386E+01 0.89664329708E+01 0.58612132853E+01
 0.58728581255E+01 0.58146976003E+01 0.57124025198E+01 0.55814779982E+01 0.54278648553E+01
 0.52510910647E+01 0.50484858179E+01 0.48215767737E+01 0.45803184733E+01 0.43377883659E+01
 0.40973866189E+01 0.38462822512E+01 0.35648416725E+01 0.32438747547E+01 0.28919931948E+01
 0.25268970837E+01 0.21623645504E+01 0.18050747458E+01 0.14614481585E+01 0.11434039477E+01
 0.86564818520E+00 0.63816489447E+00 0.46199829542E+00 0.33138581503E+00 0.23872576552E+00
 0.17744590285E+00 0.14120616779E+00 0.12185219757E+00 0.10965659720E+00 0.96827972912E-01
 0.81489586409E-01 0.68328917572E-01 0.65103067954E-01 0.77759507766E-01 0.10737652622E+00
 0.15009461487E+00 0.19979838329E+00 0.25291202226E+00 0.31327308393E+00 0.39325862031E+00
 0.50887069880E+00 0.67197636664E+00 0.88667133011E+00 0.11531490069E+01 0.14741472635E+01
 0.18554042274E+01 0.22978633075E+01 0.27894322831E+01 0.33060871511E+01 0.38223133152E+01
 0.43197609574E+01 0.47844122046E+01 0.51964802102E+01 0.55274342588E+01 0.57514094350E+01
 0.39574774931E+01 0.39862313159E+01 0.39716768036E+01 0.39263037120E+01 0.38605879408E+01
 0.37878168542E+01 0.37226097673E+01 0.36725743236E+01 0.36312427087E+01 0.35780623696E+01
 0.34844200846E+01 0.33231926843E+01 0.30807893489E+01 0.27675838199E+01 0.24178387091E+01
 0.20742015922E+01 0.17652964187E+01 0.14937622782E+01 0.12443756319E+01 0.10040187736E+01
 0.77545631891E+00 0.57450616354E+00 0.41619815036E+00 0.30375017913E+00 0.22854061948E+00
 0.17788070835E+00 0.14203312885E+00 0.11575290326E+00 0.96179410551E-01 0.81069717119E-01
 0.68843772156E-01 0.59307977722E-01 0.53870375808E-01 0.55051816009E-01 0.65363534984E-01
 0.85802549284E-01 0.11506743499E+00 0.15077059687E+00 0.19220892524E+00 0.24233184707E+00
 0.30704568921E+00 0.39263391517E+00 0.50391552113E+00 0.64491382832E+00 0.82109935920E+00
 0.10399377814E+01 0.13068783274E+01 0.16181946904E+01 0.19573094716E+01 0.23006476023E+01
 0.26300245084E+01 0.29397102622E+01 0.32299853364E+01 0.34939929880E+01 0.37135610613E+01
 0.38698926033E+01 0.26674076438E+01 0.26832184899E+01 0.26767037935E+01 0.26580691319E+01
 0.26326635421E+01 0.26088174312E+01 0.26003211330E+01 0.26176455123E+01 0.26550815750E+01
 0.26853384621E+01 0.26670120494E+01 0.25622563304E+01 0.23567470342E+01 0.20709220226E+01
 0.17529553165E+01 0.14544295672E+01 0.12041861051E+01 0.99958515826E+00 0.82039864867E+00
 0.65134010500E+00 0.49400995965E+00 0.36152530634E+00 0.26475375209E+00 0.20321448758E+00
 0.16616498020E+00 0.14019681024E+00 0.11637847892E+00 0.92579460640E-01 0.71146745177E-01
 0.55066402067E-01 0.45633423621E-01 0.42384686324E-01 0.44105905190E-01 0.49667538502E-01
 0.58443882936E-01 0.70558467405E-01 0.87028392697E-01 0.10976791054E+00 0.14137204544E+00
 0.18439765781E+00 0.24011051374E+00 0.30776906848E+00 0.38607213559E+00 0.47670266284E+00
 0.58696593360E+00 0.72777390471E+00 0.90655501778E+00 0.11197590799E+01 0.13516796249E+01
 0.15822646330E+01 0.17985520902E+01 0.19995538162E+01 0.21892982161E+01 0.23646830337E+01
 0.25114444039E+01 0.26137052060E+01 0.16371226608E+01 0.16303242351E+01 0.16276509843E+01
 0.16322494351E+01 0.16319054913E+01 0.16078127382E+01 0.15472853435E+01 0.14512580971E+01
 0.13336546312E+01 0.12148691168E+01 0.11126214879E+01 0.10340520064E+01 0.97377252689E+00
 0.91948632857E+00 0.86026090767E+00 0.79041436410E+00 0.70789669440E+00 0.61240729197E+00
 0.50689291229E+00 0.39967491928E+00 0.30276375816E+00 0.22660609280E+00 0.17536242380E+00
 0.14556246347E+00 0.12813621347E+00 0.11284131832E+00 0.93439715591E-01 0.70489173385E-01
 0.49345508400E-01 0.35178914882E-01 0.29670664811E-01 0.31459354040E-01 0.38006431355E-01
 0.46421771766E-01 0.53984095122E-01 0.59794105273E-01 0.66347432028E-01 0.78772900302E-01
 0.10200829559E+00 0.13826765220E+00 0.18612946651E+00 0.24118710892E+00 0.29862845275E+00
 0.35768189505E+00 0.42482569076E+00 0.51131660501E+00 0.62516017934E+00 0.76404405511E+00
 0.91583338303E+00 0.10660913680E+01 0.12056158222E+01 0.13317372411E+01 0.14434235612E+01
 0.15358476587E+01 0.16005821645E+01 0.16324786879E+01 0.10180595709E+01 0.99784677342E+00
 0.98786697735E+00 0.99004214703E+00 0.99045945840E+00 0.96505830548E+00 0.89237857696E+00
 0.76672691833E+00 0.60507487471E+00 0.44334228476E+00 0.32196023443E+00 0.26689993583E+00
 0.27709577435E+00 0.32653252407E+00 0.37928894007E+00 0.40702982429E+00 0.39865360166E+00
 0.35932499537E+00 0.30300192636E+00 0.24425539463E+00 0.19319248455E+00 0.15437710535E+00
 0.12811220441E+00 0.11167841693E+00 0.99981924073E-01 0.87219700754E-01 0.70149024041E-01
 0.50404985705E-01 0.33076007870E-01 0.22677316472E-01 0.20497557443E-01 0.25041091151E-01
 0.33510912061E-01 0.42440177238E-01 0.48470650052E-01 0.50491817000E-01 0.51474461666E-01
 0.57420946368E-01 0.73822467609E-01 0.10258288812E+00 0.14129999329E+00 0.18463414843E+00
 0.22723626963E+00 0.26765126999E+00 0.31069924350E+00 0.36505218936E+00 0.43661722282E+00
 0.52348239040E+00 0.61744021151E+00 0.71024090321E+00 0.79785335493E+00 0.87887644773E+00
 0.94993957871E+00 0.10037907269E+01 0.10327026911E+01 0.10347945701E+01 0.80243064099E+00
 0.78217165852E+00 0.75331474789E+00 0.72592447613E+00 0.70565405170E+00 0.69502873828E+00
 0.69575973487E+00 0.70864973443E+00 0.73078931348E+00 0.75292075722E+00 0.76030651393E+00
 0.73809144968E+00 0.67877853525E+00 0.58727309856E+00 0.47973573040E+00 0.37629661950E+00
 0.29201134561E+00 0.23166479514E+00 0.19095443179E+00 0.16194418415E+00 0.13838939177E+00
 0.11783482727E+00 0.10036966346E+00 0.86105228852E-01 0.73739927826E-01 0.61224802037E-01
 0.47588590872E-01 0.33990030516E-01 0.22989446156E-01 0.16870212812E-01 0.16494046419E-01
 0.21121560735E-01 0.28624356247E-01 0.35922058439E-01 0.40200905340E-01 0.40819321601E-01
 0.40422132919E-01 0.43863205807E-01 0.55429270253E-01 0.76399668114E-01 0.10454334143E+00
 0.13564608080E+00 0.16616011555E+00 0.19565099299E+00 0.22741525132E+00 0.26621547596E+00
 0.31430552057E+00 0.36914785328E+00 0.42543623297E+00 0.47999381285E+00 0.53475187169E+00
 0.59430961029E+00 0.65974588428E+00 0.72434032823E+00 0.77559870890E+00 0.80251912166E+00
 0.61708310975E+00 0.60342635549E+00 0.57379539104E+00 0.53910527634E+00 0.51161323469E+00
 0.50524075977E+00 0.53373678686E+00 0.60371616810E+00 0.70556152067E+00 0.80999593624E+00
 0.87637515465E+00 0.87077390916E+00 0.78377513963E+00 0.63634132238E+00 0.46932919410E+00
 0.32320169064E+00 0.22079002487E+00 0.16261325393E+00 0.13452705659E+00 0.11975075816E+00
 0.10709774954E+00 0.92607473059E-01 0.76884726159E-01 0.61791328665E-01 0.48585172626E-01
 0.37648822568E-01 0.28950513734E-01 0.22413744353E-01 0.17992444115E-01 0.15720620306E-01
 0.15796641168E-01 0.18331691020E-01 0.22690433126E-01 0.27209651333E-01 0.30106542665E-01
 0.31079880517E-01 0.32007117156E-01 0.35852363569E-01 0.44709619574E-01 0.58668479029E-01
 0.76217925961E-01 0.95594835790E-01 0.11610257427E+00 0.13868857037E+00 0.16533720228E+00
 0.19735289113E+00 0.23363719078E+00 0.27067550008E+00 0.30494125923E+00 0.33620639445E+00
 0.36884767820E+00 0.40927659136E+00 0.46062741079E+00 0.51850906441E+00 0.57152067465E+00
 0.60684615666E+00 0.29972740033E+00 0.29298659258E+00 0.28843654693E+00 0.28502484556E+00
 0.27750505666E+00 0.25884179416E+00 0.22441014562E+00 0.17525883045E+00 0.11864056053E+00
 0.65826456504E-01 0.28190847932E-01 0.12930345293E-01 0.20182541292E-01 0.43084055066E-01
 0.70875453533E-01 0.93467123143E-01 0.10521158438E+00 0.10611615851E+00 0.99986765031E-01
 0.90829503120E-01 0.80262118749E-01 0.67896637250E-01 0.53713713657E-01 0.39487191456E-01
 0.27804789197E-01 0.20204187976E-01 0.16534265933E-01 0.15621160098E-01 0.16004044088E-01
 0.16376606956E-01 0.16173478340E-01 0.15941958070E-01 0.16644257703E-01 0.18425226241E-01
 0.20540970703E-01 0.22696319080E-01 0.25861019679E-01 0.31243577396E-01 0.38802971890E-01
 0.47388864731E-01 0.56301665269E-01 0.66299064498E-01 0.79168719943E-01 0.96707827351E-01
 0.11979234034E+00 0.14744850332E+00 0.17648001821E+00 0.20285903129E+00 0.22446268600E+00
 0.24248387487E+00 0.25968287068E+00 0.27718012855E+00 0.29313247335E+00 0.30429980224E+00
 0.30853576917E+00 0.30613940936E+00 0.11172876732E+00 0.11045063388E+00 0.12187785193E+00
 0.13805554862E+00 0.14497709285E+00 0.12534757039E+00 0.64519681742E-01 -.41279197499E-01
 -.17805978857E+00 -.31376437305E+00 -.40804482235E+00 -.42969425088E+00 -.37253403281E+00
 -.25930851833E+00 -.13020749034E+00 -.23040142054E-01 0.42644000190E-01 0.68902940155E-01
 0.70731837728E-01 0.63373750821E-01 0.54560938619E-01 0.45114507477E-01 0.34225793098E-01
 0.23151830052E-01 0.14635353222E-01 0.10418166375E-01 0.10181185833E-01 0.12318939439E-01
 0.14913330381E-01 0.16264350876E-01 0.15568990512E-01 0.13536415083E-01 0.11865719197E-01
 0.11797605477E-01 0.13466439190E-01 0.16689654454E-01 0.21626913846E-01 0.28082362917E-01
 0.34696479940E-01 0.39809773328E-01 0.43350571292E-01 0.47468461846E-01 0.55209403280E-01
 0.68681196767E-01 0.87946757357E-01 0.11067787342E+00 0.13281051869E+00 0.15076856735E+00
 0.16402044905E+00 0.17493784549E+00 0.18510186714E+00 0.19183339128E+00 0.18946400470E+00
 0.17475064973E+00 0.15100234027E+00 0.12693459988E+00 0.17919133576E+00 0.18145786614E+00
 0.18127749840E+00 0.17778291408E+00 0.17265565677E+00 0.17027740516E+00 0.17558916552E+00
 0.19056554845E+00 0.21174430537E+00 0.23100635194E+00 0.23942478492E+00 0.23161933491E+00
 0.20792168407E+00 0.17354939151E+00 0.13588123455E+00 0.10154121478E+00 0.74559750561E-01
 0.56018544746E-01 0.44736854141E-01 0.38227853106E-01 0.33576116012E-01 0.28398642217E-01
 0.21824864595E-01 0.14827162108E-01 0.93959457030E-02 0.70684998988E-02 0.79289094523E-02
 0.10657946140E-01 0.13328389986E-01 0.14376389919E-01 0.13340973011E-01 0.11020132066E-01
 0.88841193583E-02 0.81892743243E-02 0.95499846336E-02 0.13090656747E-01 0.18524306732E-01
 0.24847259804E-01 0.30348228290E-01 0.33610663058E-01 0.34895079391E-01 0.36491515278E-01
 0.41489992695E-01 0.51835201866E-01 0.66968906379E-01 0.83870504121E-01 0.98663910184E-01
 0.10911804691E+00 0.11630059787E+00 0.12365986920E+00 0.13392137945E+00 0.14661239236E+00
 0.15867282272E+00 0.16740750242E+00 0.17264123685E+00 0.17610995009E+00 0.22237548684E+00
 0.22550059603E+00 0.21489012134E+00 0.19473051706E+00 0.17733956483E+00 0.18158377791E+00
 0.22570982729E+00 0.31622464889E+00 0.43893580220E+00 0.55946603269E+00 0.63588026413E+00
 0.63794427511E+00 0.56204577196E+00 0.43261268055E+00 0.28920160491E+00 0.16748012331E+00
 0.85536523591E-01 0.42140568515E-01 0.24843206115E-01 0.20152195648E-01 0.19240220181E-01
 0.18182185845E-01 0.15865053542E-01 0.12515117831E-01 0.92092104798E-02 0.73133730270E-02
 0.75118740004E-02 0.92005823960E-02 0.10906519459E-01 0.11379599075E-01 0.10395243596E-01
 0.86937614348E-02 0.73209162786E-02 0.70606749634E-02 0.83334981548E-02 0.11307131068E-01
 0.15780956770E-01 0.20895981368E-01 0.25249665071E-01 0.27759197434E-01 0.28734396567E-01
 0.30106964494E-01 0.34320860484E-01 0.42557273001E-01 0.53653980626E-01 0.64671443791E-01
 0.72857062912E-01 0.77640185461E-01 0.81150148475E-01 0.86863591563E-01 0.97517984935E-01
 0.11392262184E+00 0.13521770294E+00 0.15966973138E+00 0.18487093472E+00 0.20731957071E+00
 0.66073644593E-01 0.68404729044E-01 0.69622732521E-01 0.66407345247E-01 0.58293395651E-01
 0.47077501426E-01 0.34496343422E-01 0.20643105409E-01 0.47063890882E-02 -.12760958436E-01
 -.28437681480E-01 -.37357252258E-01 -.35934148459E-01 -.24627143221E-01 -.82384126689E-02
 0.65134864930E-02 0.14705722581E-01 0.15773247587E-01 0.13068936318E-01 0.10786379589E-01
 0.10842548831E-01 0.12250330167E-01 0.12981719676E-01 0.12065929854E-01 0.10069404278E-01
 0.81950470215E-02 0.73021029425E-02 0.74921904697E-02 0.81526804315E-02 0.84018927016E-02
 0.78449957577E-02 0.69905648657E-02 0.67307495528E-02 0.74298978843E-02 0.88010681169E-02
 0.10648622549E-01 0.13232013324E-01 0.16597865511E-01 0.19956399164E-01 0.22328658468E-01
 0.23863089565E-01 0.26080237302E-01 0.30548333884E-01 0.37371494283E-01 0.44965085640E-01
 0.51176682367E-01 0.54812713981E-01 0.56622460974E-01 0.59012722146E-01 0.64234043548E-01
 0.72072770447E-01 0.79243560336E-01 0.81701396240E-01 0.78181320561E-01 0.71582671381E-01
 0.66658147182E-01 -.50435235959E-01 -.47847704740E-01 -.36234951396E-01 -.24874718080E-01
 -.24037005809E-01 -.45031602737E-01 -.99244291342E-01 -.19235216394E+00 -.31542018921E+00
 -.44063396711E+00 -.52872685979E+00 -.54669263946E+00 -.48535461513E+00 -.36510228292E+00
 -.22579454562E+00 -.10714450519E+00 -.31423771801E-01 0.20271801271E-02 0.91633189830E-02
 0.76409764559E-02 0.72016680243E-02 0.89685416841E-02 0.10580465146E-01 0.10663514817E-01
 0.95417993002E-02 0.79928607000E-02 0.66092976914E-02 0.58540250801E-02 0.58235213312E-02
 0.60295406597E-02 0.60069106146E-02 0.60754881466E-02 0.69335728720E-02 0.85095339436E-02
 0.98811580789E-02 0.10558463798E-01 0.11240074965E-01 0.12855693876E-01 0.15316481699E-01
 0.17835806591E-01 0.20282776469E-01 0.23518255757E-01 0.28224911508E-01 0.33842826974E-01
 0.38891777551E-01 0.42164141092E-01 0.43664738145E-01 0.44831375333E-01 0.47803934763E-01
 0.53466143207E-01 0.59166621929E-01 0.58638947440E-01 0.45745121441E-01 0.19877095268E-01
 -.11819826835E-01 -.38083969149E-01 0.55859740574E-01 0.60438846826E-01 0.60693657960E-01
 0.54056901011E-01 0.43447661027E-01 0.35281818268E-01 0.34306695074E-01 0.40004113136E-01
 0.47533663659E-01 0.51635175074E-01 0.49817790127E-01 0.43024329335E-01 0.34418618801E-01
 0.27379040234E-01 0.23451098070E-01 0.21471582973E-01 0.18949043476E-01 0.14710309010E-01
 0.10053522992E-01 0.71490605348E-02 0.67096405904E-02 0.76117528553E-02 0.84035633962E-02
 0.84900614513E-02 0.79334205652E-02 0.69000024633E-02 0.56759087758E-02 0.47429336024E-02
 0.43844688875E-02 0.44436798495E-02 0.47917546774E-02 0.57473335762E-02 0.75584231394E-02
 0.96184873855E-02 0.10785767577E-01 0.10649570880E-01 0.10097783628E-01 0.10417082652E-01
 0.12112282268E-01 0.14835058086E-01 0.18185463751E-01 0.22145707839E-01 0.26688761459E-01
 0.31262212013E-01 0.34905117613E-01 0.36995856506E-01 0.38019012823E-01 0.39615145890E-01
 0.43549130666E-01 0.50116460052E-01 0.57325412857E-01 0.61903708988E-01 0.61679353365E-01
 0.57517310727E-01 0.53086301684E-01 0.52259518264E-01 0.15964057558E+00 0.16547199132E+00
 0.15490216593E+00 0.13163217755E+00 0.11038161196E+00 0.11340837424E+00 0.16023450031E+00
 0.25555880510E+00 0.38242898623E+00 0.50529238792E+00 0.58292823993E+00 0.58640524701E+00
 0.51321761711E+00 0.38869726490E+00 0.25264724283E+00 0.13951578609E+00 0.65068390206E-01
 0.26376456376E-01 0.11122146877E-01 0.71737147212E-02 0.69778171285E-02 0.73332205251E-02
 0.74816759669E-02 0.74215061718E-02 0.70661317665E-02 0.62783888426E-02 0.52335548041E-02
 0.43637128059E-02 0.39157375817E-02 0.38658670267E-02 0.43351681961E-02 0.56862582867E-02
 0.78976671725E-02 0.10091124205E-01 0.11121289902E-01 0.10702699913E-01 0.97509103908E-02
 0.95884296385E-02 0.10960200351E-01 0.13773879130E-01 0.17516810618E-01 0.21731604628E-01
 0.26110375026E-01 0.30240372074E-01 0.33461366551E-01 0.35318165745E-01 0.36364251199E-01
 0.38260182063E-01 0.42610084718E-01 0.49645512456E-01 0.58436867185E-01 0.68555354561E-01
 0.81153897048E-01 0.97988816230E-01 0.11920992556E+00 0.14179790859E+00 0.55859740574E-01
 0.60438846826E-01 0.60693657960E-01 0.54056901011E-01 0.43447661027E-01 0.35281818268E-01