   2   2   0   0
  0.1080000E+03  0.6000000E-09  0.6000000E-09  0.6000000E-09  0.5000000E-15
  1.000000000000000E-004
  CAR 
 unknown system                          
     -0.03423729    -29.98990145  301     -8.41015815      1.00000000
    -29.990  0.0000E+00  0.0000E+00
    -29.890  0.0000E+00  0.0000E+00
    -29.790  0.0000E+00  0.0000E+00
    -29.690  0.0000E+00  0.0000E+00
    -29.590  0.0000E+00  0.0000E+00
    -29.491  0.0000E+00  0.0000E+00
    -29.391  0.0000E+00  0.0000E+00
    -29.291  0.0000E+00  0.0000E+00
    -29.191  0.0000E+00  0.0000E+00
    -29.091  0.0000E+00  0.0000E+00
    -28.991  0.0000E+00  0.0000E+00
    -28.892  0.0000E+00  0.0000E+00
    -28.792 -0.2086-114 -0.2083-115
    -28.692 -0.2094E-16 -0.2091E-17
    -28.592  0.4006E+01  0.4000E+00
    -28.492  0.0000E+00  0.4000E+00
    -28.392  0.0000E+00  0.4000E+00
    -28.292  0.0000E+00  0.4000E+00
    -28.193  0.0000E+00  0.4000E+00
    -28.093  0.0000E+00  0.4000E+00
    -27.993  0.0000E+00  0.4000E+00
    -27.893  0.0000E+00  0.4000E+00
    -27.793  0.0000E+00  0.4000E+00
    -27.693  0.0000E+00  0.4000E+00
    -27.593  0.0000E+00  0.4000E+00
    -27.494  0.0000E+00  0.4000E+00
    -27.394  0.0000E+00  0.4000E+00
    -27.294  0.0000E+00  0.4000E+00
    -27.194  0.0000E+00  0.4000E+00
    -27.094  0.0000E+00  0.4000E+00
    -26.994  0.0000E+00  0.4000E+00
    -26.894  0.0000E+00  0.4000E+00
    -26.795  0.0000E+00  0.4000E+00
    -26.695  0.0000E+00  0.4000E+00
    -26.595  0.0000E+00  0.4000E+00
    -26.495  0.0000E+00  0.4000E+00
    -26.395  0.0000E+00  0.4000E+00
    -26.295  0.0000E+00  0.4000E+00
    -26.196  0.0000E+00  0.4000E+00
    -26.096  0.0000E+00  0.4000E+00
    -25.996  0.0000E+00  0.4000E+00
    -25.896  0.0000E+00  0.4000E+00
    -25.796  0.0000E+00  0.4000E+00
    -25.696  0.0000E+00  0.4000E+00
    -25.596  0.0000E+00  0.4000E+00
    -25.497  0.0000E+00  0.4000E+00
    -25.397  0.0000E+00  0.4000E+00
    -25.297  0.0000E+00  0.4000E+00
    -25.197  0.0000E+00  0.4000E+00
    -25.097  0.0000E+00  0.4000E+00
    -24.997  0.0000E+00  0.4000E+00
    -24.897  0.0000E+00  0.4000E+00
    -24.798  0.0000E+00  0.4000E+00
    -24.698  0.0000E+00  0.4000E+00
    -24.598  0.0000E+00  0.4000E+00
    -24.498  0.0000E+00  0.4000E+00
    -24.398  0.0000E+00  0.4000E+00
    -24.298  0.0000E+00  0.4000E+00
    -24.198  0.0000E+00  0.4000E+00
    -24.099  0.0000E+00  0.4000E+00
    -23.999  0.0000E+00  0.4000E+00
    -23.899  0.0000E+00  0.4000E+00
    -23.799  0.0000E+00  0.4000E+00
    -23.699  0.0000E+00  0.4000E+00
    -23.599  0.0000E+00  0.4000E+00
    -23.500  0.0000E+00  0.4000E+00
    -23.400  0.0000E+00  0.4000E+00
    -23.300  0.0000E+00  0.4000E+00
    -23.200  0.0000E+00  0.4000E+00
    -23.100  0.0000E+00  0.4000E+00
    -23.000  0.0000E+00  0.4000E+00
    -22.900  0.0000E+00  0.4000E+00
    -22.801  0.0000E+00  0.4000E+00
    -22.701  0.0000E+00  0.4000E+00
    -22.601  0.0000E+00  0.4000E+00
    -22.501  0.0000E+00  0.4000E+00
    -22.401  0.0000E+00  0.4000E+00
    -22.301  0.0000E+00  0.4000E+00
    -22.201  0.0000E+00  0.4000E+00
    -22.102  0.0000E+00  0.4000E+00
    -22.002  0.0000E+00  0.4000E+00
    -21.902  0.0000E+00  0.4000E+00
    -21.802  0.0000E+00  0.4000E+00
    -21.702  0.0000E+00  0.4000E+00
    -21.602  0.0000E+00  0.4000E+00
    -21.502  0.0000E+00  0.4000E+00
    -21.403  0.0000E+00  0.4000E+00
    -21.303  0.0000E+00  0.4000E+00
    -21.203  0.0000E+00  0.4000E+00
    -21.103  0.0000E+00  0.4000E+00
    -21.003  0.0000E+00  0.4000E+00
    -20.903  0.0000E+00  0.4000E+00
    -20.803  0.0000E+00  0.4000E+00
    -20.704  0.0000E+00  0.4000E+00
    -20.604  0.0000E+00  0.4000E+00
    -20.504  0.0000E+00  0.4000E+00
    -20.404  0.0000E+00  0.4000E+00
    -20.304  0.0000E+00  0.4000E+00
    -20.204  0.0000E+00  0.4000E+00
    -20.105  0.0000E+00  0.4000E+00
    -20.005  0.0000E+00  0.4000E+00
    -19.905  0.0000E+00  0.4000E+00
    -19.805  0.0000E+00  0.4000E+00
    -19.705  0.0000E+00  0.4000E+00
    -19.605  0.0000E+00  0.4000E+00
    -19.505  0.0000E+00  0.4000E+00
    -19.406  0.0000E+00  0.4000E+00
    -19.306  0.0000E+00  0.4000E+00
    -19.206  0.0000E+00  0.4000E+00
    -19.106  0.0000E+00  0.4000E+00
    -19.006  0.0000E+00  0.4000E+00
    -18.906  0.0000E+00  0.4000E+00
    -18.806  0.0000E+00  0.4000E+00
    -18.707  0.0000E+00  0.4000E+00
    -18.607  0.0000E+00  0.4000E+00
    -18.507  0.0000E+00  0.4000E+00
    -18.407  0.0000E+00  0.4000E+00
    -18.307  0.0000E+00  0.4000E+00
    -18.207  0.0000E+00  0.4000E+00
    -18.107  0.0000E+00  0.4000E+00
    -18.008  0.0000E+00  0.4000E+00
    -17.908  0.0000E+00  0.4000E+00
    -17.808  0.0000E+00  0.4000E+00
    -17.708  0.0000E+00  0.4000E+00
    -17.608  0.0000E+00  0.4000E+00
    -17.508  0.0000E+00  0.4000E+00
    -17.409  0.0000E+00  0.4000E+00
    -17.309  0.0000E+00  0.4000E+00
    -17.209  0.0000E+00  0.4000E+00
    -17.109  0.0000E+00  0.4000E+00
    -17.009  0.0000E+00  0.4000E+00
    -16.909  0.0000E+00  0.4000E+00
    -16.809  0.0000E+00  0.4000E+00
    -16.710  0.0000E+00  0.4000E+00
    -16.610  0.0000E+00  0.4000E+00
    -16.510  0.0000E+00  0.4000E+00
    -16.410  0.0000E+00  0.4000E+00
    -16.310  0.0000E+00  0.4000E+00
    -16.210  0.0000E+00  0.4000E+00
    -16.110  0.0000E+00  0.4000E+00
    -16.011  0.0000E+00  0.4000E+00
    -15.911  0.0000E+00  0.4000E+00
    -15.811  0.0000E+00  0.4000E+00
    -15.711  0.0000E+00  0.4000E+00
    -15.611  0.0000E+00  0.4000E+00
    -15.511  0.0000E+00  0.4000E+00
    -15.411  0.0000E+00  0.4000E+00
    -15.312  0.0000E+00  0.4000E+00
    -15.212  0.0000E+00  0.4000E+00
    -15.112  0.0000E+00  0.4000E+00
    -15.012  0.0000E+00  0.4000E+00
    -14.912  0.0000E+00  0.4000E+00
    -14.812  0.0000E+00  0.4000E+00
    -14.713  0.0000E+00  0.4000E+00
    -14.613  0.0000E+00  0.4000E+00
    -14.513  0.0000E+00  0.4000E+00
    -14.413  0.0000E+00  0.4000E+00
    -14.313  0.0000E+00  0.4000E+00
    -14.213  0.0000E+00  0.4000E+00
    -14.113  0.0000E+00  0.4000E+00
    -14.014  0.0000E+00  0.4000E+00
    -13.914  0.0000E+00  0.4000E+00
    -13.814  0.0000E+00  0.4000E+00
    -13.714  0.0000E+00  0.4000E+00
    -13.614  0.0000E+00  0.4000E+00
    -13.514 -0.3914E-64  0.4000E+00
    -13.414 -0.1080E-01  0.3989E+00
    -13.315  0.4017E+01  0.8000E+00
    -13.215  0.0000E+00  0.8000E+00
    -13.115  0.0000E+00  0.8000E+00
    -13.015  0.0000E+00  0.8000E+00
    -12.915  0.0000E+00  0.8000E+00
    -12.815  0.0000E+00  0.8000E+00
    -12.715  0.0000E+00  0.8000E+00
    -12.616  0.0000E+00  0.8000E+00
    -12.516  0.0000E+00  0.8000E+00
    -12.416  0.0000E+00  0.8000E+00
    -12.316  0.0000E+00  0.8000E+00
    -12.216  0.0000E+00  0.8000E+00
    -12.116  0.0000E+00  0.8000E+00
    -12.017  0.0000E+00  0.8000E+00
    -11.917  0.0000E+00  0.8000E+00
    -11.817  0.0000E+00  0.8000E+00
    -11.717  0.0000E+00  0.8000E+00
    -11.617  0.0000E+00  0.8000E+00
    -11.517  0.0000E+00  0.8000E+00
    -11.417  0.0000E+00  0.8000E+00
    -11.318  0.0000E+00  0.8000E+00
    -11.218 -0.1342E-89  0.8000E+00
    -11.118 -0.1293E-07  0.8000E+00
    -11.018  0.8012E+01  0.1600E+01
    -10.918  0.0000E+00  0.1600E+01
    -10.818  0.0000E+00  0.1600E+01
    -10.718  0.0000E+00  0.1600E+01
    -10.619  0.0000E+00  0.1600E+01
    -10.519  0.0000E+00  0.1600E+01
    -10.419  0.0000E+00  0.1600E+01
    -10.319  0.0000E+00  0.1600E+01
    -10.219  0.0000E+00  0.1600E+01
    -10.119  0.0000E+00  0.1600E+01
    -10.019  0.0000E+00  0.1600E+01
     -9.920  0.0000E+00  0.1600E+01
     -9.820  0.0000E+00  0.1600E+01
     -9.720  0.0000E+00  0.1600E+01
     -9.620  0.0000E+00  0.1600E+01
     -9.520  0.0000E+00  0.1600E+01
     -9.420  0.0000E+00  0.1600E+01
     -9.320  0.0000E+00  0.1600E+01
     -9.221  0.0000E+00  0.1600E+01
     -9.121  0.0000E+00  0.1600E+01
     -9.021  0.0000E+00  0.1600E+01
     -8.921  0.0000E+00  0.1600E+01
     -8.821  0.0000E+00  0.1600E+01
     -8.721  0.0000E+00  0.1600E+01
     -8.622  0.0000E+00  0.1600E+01
     -8.522 -0.8015E-45  0.1600E+01
     -8.422  0.9641E+00  0.1696E+01
     -8.322  0.0000E+00  0.2000E+01
     -8.222  0.0000E+00  0.2000E+01
     -8.122  0.0000E+00  0.2000E+01
     -8.022  0.0000E+00  0.2000E+01
     -7.923  0.0000E+00  0.2000E+01
     -7.823  0.0000E+00  0.2000E+01
     -7.723  0.0000E+00  0.2000E+01
     -7.623  0.0000E+00  0.2000E+01
     -7.523  0.0000E+00  0.2000E+01
     -7.423  0.0000E+00  0.2000E+01
     -7.323  0.0000E+00  0.2000E+01
     -7.224  0.0000E+00  0.2000E+01
     -7.124  0.0000E+00  0.2000E+01
     -7.024  0.0000E+00  0.2000E+01
     -6.924  0.0000E+00  0.2000E+01
     -6.824  0.0000E+00  0.2000E+01
     -6.724  0.0000E+00  0.2000E+01
     -6.624  0.0000E+00  0.2000E+01
     -6.525  0.0000E+00  0.2000E+01
     -6.425  0.0000E+00  0.2000E+01
     -6.325  0.0000E+00  0.2000E+01
     -6.225  0.0000E+00  0.2000E+01
     -6.125  0.0000E+00  0.2000E+01
     -6.025  0.0000E+00  0.2000E+01
     -5.926  0.0000E+00  0.2000E+01
     -5.826  0.0000E+00  0.2000E+01
     -5.726  0.0000E+00  0.2000E+01
     -5.626  0.0000E+00  0.2000E+01
     -5.526  0.0000E+00  0.2000E+01
     -5.426  0.0000E+00  0.2000E+01
     -5.326  0.0000E+00  0.2000E+01
     -5.227  0.0000E+00  0.2000E+01
     -5.127  0.0000E+00  0.2000E+01
     -5.027  0.0000E+00  0.2000E+01
     -4.927  0.0000E+00  0.2000E+01
     -4.827  0.0000E+00  0.2000E+01
     -4.727  0.0000E+00  0.2000E+01
     -4.627  0.0000E+00  0.2000E+01
     -4.528  0.0000E+00  0.2000E+01
     -4.428  0.0000E+00  0.2000E+01
     -4.328  0.0000E+00  0.2000E+01
     -4.228  0.0000E+00  0.2000E+01
     -4.128  0.0000E+00  0.2000E+01
     -4.028  0.0000E+00  0.2000E+01
     -3.928  0.0000E+00  0.2000E+01
     -3.829  0.0000E+00  0.2000E+01
     -3.729  0.0000E+00  0.2000E+01
     -3.629  0.0000E+00  0.2000E+01
     -3.529  0.0000E+00  0.2000E+01
     -3.429  0.0000E+00  0.2000E+01
     -3.329  0.0000E+00  0.2000E+01
     -3.230  0.0000E+00  0.2000E+01
     -3.130  0.0000E+00  0.2000E+01
     -3.030  0.0000E+00  0.2000E+01
     -2.930  0.0000E+00  0.2000E+01
     -2.830  0.0000E+00  0.2000E+01
     -2.730  0.0000E+00  0.2000E+01
     -2.630  0.0000E+00  0.2000E+01
     -2.531  0.0000E+00  0.2000E+01
     -2.431  0.0000E+00  0.2000E+01
     -2.331  0.0000E+00  0.2000E+01
     -2.231  0.0000E+00  0.2000E+01
     -2.131  0.0000E+00  0.2000E+01
     -2.031  0.0000E+00  0.2000E+01
     -1.931  0.0000E+00  0.2000E+01
     -1.832  0.0000E+00  0.2000E+01
     -1.732  0.0000E+00  0.2000E+01
     -1.632  0.0000E+00  0.2000E+01
     -1.532 -0.4661E-79  0.2000E+01
     -1.432 -0.7150E-05  0.2000E+01
     -1.332  0.4006E+01  0.2400E+01
     -1.232  0.0000E+00  0.2400E+01
     -1.133  0.0000E+00  0.2400E+01
     -1.033  0.0000E+00  0.2400E+01
     -0.933  0.0000E+00  0.2400E+01
     -0.833  0.0000E+00  0.2400E+01
     -0.733  0.0000E+00  0.2400E+01
     -0.633  0.0000E+00  0.2400E+01
     -0.533  0.0000E+00  0.2400E+01
     -0.434  0.0000E+00  0.2400E+01
     -0.334  0.0000E+00  0.2400E+01
     -0.234  0.0000E+00  0.2400E+01
     -0.134  0.0000E+00  0.2400E+01
     -0.034  0.0000E+00  0.2400E+01
