unknown system                          
   1.00000000000000     
    -1.435000    1.435000    1.435000
     1.435000   -1.435000    1.435000
     1.435000    1.435000   -1.435000
   Fe
     1
Direct
  0.000000  0.000000  0.000000
 
   20   20   20
  100.61      94.636      78.872      58.386      38.342      22.224      11.607      6.3389      4.6086      3.9642    
  3.7556      3.9642      4.6086      6.3389      11.607      22.224      38.342      58.386      78.872      94.636    
  94.644      92.670      80.307      61.738      42.113      25.390      13.660      7.2546      4.8552      4.0607    
  3.7302      3.8055      4.2790      5.3416      8.8508      17.003      30.547      48.581      68.406      85.484    
  78.885      80.321      72.227      57.467      40.510      25.287      14.114      7.6301      4.9585      4.0716    
  3.6552      3.6111      3.9057      4.5909      6.4339      11.575      21.341      35.572      52.448      68.408    
  58.386      61.748      57.473      47.163      34.214      22.026      12.790      7.2477      4.8394      3.9843    
  3.5354      3.4074      3.5541      4.0287      4.9258      7.4494      13.277      22.963      35.565      48.571    
  38.331      42.108      40.508      34.211      25.494      16.929      10.308      6.2951      4.5199      3.8050    
  3.3805      3.2159      3.2659      3.5566      4.1406      5.1615      7.8487      13.280      21.339      30.536    
  22.222      25.387      25.281      22.019      16.925      11.709      7.6401      5.2032      4.1172      3.5627    
  3.2064      3.0498      3.0524      3.2124      3.5785      4.1797      5.1633      7.4561      11.583      17.006    
  11.616      13.668      14.118      12.790      10.306      7.6393      5.5586      4.3366      3.7263      3.3014    
  3.0336      2.9135      2.9048      2.9920      3.2005      3.5768      4.1386      4.9262      6.4380      8.8581    
  6.3388      7.2596      7.6368      7.2529      6.2980      5.2047      4.3371      3.7817      3.3692      3.0641    
  2.8829      2.8076      2.8078      2.8665      2.9916      3.2109      3.5534      4.0235      4.5844      5.3366    
  4.5990      4.8477      4.9549      4.8392      4.5215      4.1187      3.7269      3.3690      3.0797      2.8797    
  2.7694      2.7332      2.7507      2.8082      2.9053      3.0534      3.2674      3.5545      3.9021      4.2709    
  3.9642      4.0561      4.0650      3.9787      3.8020      3.5617      3.3010      3.0636      2.8794      2.7591    
  2.7004      2.6949      2.7335      2.8081      2.9140      3.0508      3.2190      3.4130      3.6177      3.8100    
  3.7652      3.7379      3.6588      3.5353      3.3789      3.2051      3.0331      2.8828      2.7693      2.7004    
  2.6775      2.7004      2.7693      2.8828      3.0331      3.2051      3.3789      3.5353      3.6588      3.7379    
  3.9642      3.8100      3.6177      3.4130      3.2190      3.0508      2.9140      2.8081      2.7335      2.6949    
  2.7004      2.7591      2.8794      3.0636      3.3010      3.5617      3.8020      3.9787      4.0650      4.0561    
  4.5990      4.2709      3.9021      3.5545      3.2674      3.0534      2.9053      2.8082      2.7507      2.7332    
  2.7694      2.8797      3.0797      3.3690      3.7269      4.1187      4.5215      4.8392      4.9549      4.8477    
  6.3388      5.3366      4.5844      4.0235      3.5534      3.2109      2.9916      2.8665      2.8078      2.8076    
  2.8829      3.0641      3.3692      3.7817      4.3371      5.2047      6.2980      7.2529      7.6368      7.2596    
  11.616      8.8581      6.4380      4.9262      4.1386      3.5768      3.2005      2.9920      2.9048      2.9135    
  3.0336      3.3014      3.7263      4.3366      5.5586      7.6393      10.306      12.790      14.118      13.668    
  22.222      17.006      11.583      7.4561      5.1633      4.1797      3.5785      3.2124      3.0524      3.0498    
  3.2064      3.5627      4.1172      5.2032      7.6401      11.709      16.925      22.019      25.281      25.387    
  38.331      30.536      21.339      13.280      7.8487      5.1615      4.1406      3.5566      3.2659      3.2159    
  3.3805      3.8050      4.5199      6.2951      10.308      16.929      25.494      34.211      40.508      42.108    
  58.386      48.571      35.565      22.963      13.277      7.4494      4.9258      4.0287      3.5541      3.4074    
  3.5354      3.9843      4.8394      7.2477      12.790      22.026      34.214      47.163      57.473      61.748    
  78.885      68.408      52.448      35.572      21.341      11.575      6.4339      4.5909      3.9057      3.6111    
  3.6552      4.0716      4.9585      7.6301      14.114      25.287      40.510      57.467      72.227      80.321    
  94.644      85.484      68.406      48.581      30.547      17.003      8.8508      5.3416      4.2790      3.8055    
  3.7302      4.0607      4.8552      7.2546      13.660      25.390      42.113      61.738      80.307      92.670    
  94.644      92.670      80.307      61.738      42.113      25.390      13.660      7.2546      4.8552      4.0607    
  3.7302      3.8055      4.2790      5.3416      8.8508      17.003      30.547      48.581      68.406      85.484    
  92.672      94.596      85.433      68.388      48.573      30.527      16.994      8.8670      5.3518      4.2653    
  3.7978      3.7458      4.0702      4.8420      7.2495      13.682      25.412      42.121      61.757      80.341    
  80.317      85.445      80.316      66.767      49.161      32.046      18.513      9.8498      5.7194      4.3737    
  3.8065      3.6353      3.8065      4.3737      5.7195      9.8500      18.513      32.047      49.161      66.768    
  61.739      68.398      66.776      57.477      43.701      29.408      17.601      9.7227      5.7454      4.3546    
  3.7475      3.4907      3.5369      3.9186      4.6898      6.7606      12.034      21.467      34.549      49.156    
  42.102      48.568      49.163      43.702      34.211      23.700      14.702      8.5581      5.3815      4.2040    
  3.6220      3.3308      3.2969      3.5189      4.0465      4.9648      7.4569      12.888      21.481      32.047    
  25.385      30.519      32.040      29.403      23.696      16.935      10.984      6.8973      4.7922      3.9488    
  3.4438      3.1700      3.1011      3.2123      3.5377      4.1169      5.0827      7.4687      12.050      18.510    
  13.667      16.997      18.512      17.598      14.697      10.981      7.6399      5.3685      4.2115      3.6392    
  3.2391      3.0187      2.9498      3.0005      3.1824      3.5449      4.1147      4.9645      6.7584      9.8392    
  7.2581      8.8725      9.8558      9.7267      8.5587      6.8962      5.3678      4.3351      3.7527      3.3317    
  3.0414      2.8867      2.8385      2.8676      2.9717      3.1795      3.5299      4.0358      4.6801      5.7159    
  4.8477      5.3465      5.7186      5.7481      5.3845      4.7938      4.2124      3.7533      3.3690      3.0711    
  2.8784      2.7834      2.7625      2.7932      2.8686      3.0004      3.2113      3.5203      3.9234      4.3798    
  4.0575      4.2578      4.3661      4.3501      4.2025      3.9490      3.6402      3.3328      3.0715      2.8803    
  2.7640      2.7150      2.7193      2.7635      2.8406      2.9528      3.1072      3.3076      3.5474      3.8075    
  3.7379      3.8013      3.8058      3.7445      3.6185      3.4413      3.2385      3.0418      2.8784      2.7635    
  2.7004      2.6855      2.7145      2.7834      2.8872      3.0188      3.1694      3.3291      3.4865      3.6280    
  3.8086      3.7513      3.6415      3.4951      3.3319      3.1689      3.0178      2.8867      2.7830      2.7140    
  2.6850      2.6999      2.7627      2.8772      3.0404      3.2361      3.4365      3.6113      3.7380      3.8049    
  4.2709      4.0642      3.8059      3.5403      3.3002      3.1025      2.9506      2.8394      2.7625      2.7186    
  2.7145      2.7634      2.8796      3.0712      3.3325      3.6395      3.9490      4.2059      4.3593      4.3798    
  5.3380      4.8336      4.3661      3.9149      3.5178      3.2122      3.0015      2.8691      2.7936      2.7631    
  2.7839      2.8787      3.0719      3.3706      3.7554      4.2154      4.7990      5.3915      5.7538      5.7184    
  8.8582      7.2520      5.7190      4.6878      4.0433      3.5348      3.1819      2.9727      2.8684      2.8396    
  2.8874      3.0416      3.3324      3.7544      4.3369      5.3686      6.8946      8.5530      9.7148      9.8395    
  17.006      13.686      9.8567      6.7668      4.9661      4.1150      3.5447      3.1809      2.9996      2.9506    
  3.0188      3.2374      3.6384      4.2128      5.3678      7.6335      10.970      14.685      17.587      18.509    
  30.539      25.403      18.513      12.040      7.4607      5.0821      4.1157      3.5334      3.2113      3.1039    
  3.1693      3.4395      3.9487      4.7953      6.8942      10.973      16.926      23.695      29.408      32.051    
  48.578      42.108      32.036      21.467      12.889      7.4648      4.9634      4.0408      3.5222      3.3030    
  3.3272      3.6159      4.2078      5.3869      8.5511      14.690      23.700      34.218      43.705      49.166    
  68.418      61.755      49.154      34.549      21.482      12.043      6.7519      4.6835      3.9277      3.5424    
  3.4807      3.7416      4.3636      5.7485      9.7082      17.589      29.412      43.702      57.466      66.775    
  85.494      80.344      66.764      49.160      32.055      18.507      9.8297      5.7157      4.3865      3.8052    
  3.6192      3.8052      4.3865      5.7157      9.8297      18.507      32.055      49.160      66.764      80.344    
  78.885      80.321      72.227      57.467      40.510      25.287      14.114      7.6301      4.9585      4.0716    
  3.6552      3.6111      3.9057      4.5909      6.4339      11.575      21.341      35.572      52.448      68.408    
  80.317      85.445      80.316      66.767      49.161      32.046      18.513      9.8498      5.7194      4.3737    
  3.8065      3.6353      3.8065      4.3737      5.7195      9.8500      18.513      32.047      49.161      66.768    
  72.227      80.321      78.884      68.407      52.448      35.572      21.341      11.575      6.4339      4.5909    
  3.9057      3.6111      3.6552      4.0717      4.9585      7.6302      14.114      25.287      40.510      57.467    
  57.466      66.775      68.417      61.754      49.153      34.549      21.482      12.043      6.7520      4.6836    
  3.9278      3.5424      3.4807      3.7416      4.3636      5.7486      9.7083      17.589      29.412      43.702    
  40.502      49.160      52.456      49.160      40.502      29.408      18.918      11.053      6.4855      4.6003    
  3.8592      3.4372      3.3068      3.4372      3.8592      4.6002      6.4854      11.053      18.918      29.408    
  25.280      32.037      35.569      34.549      29.407      22.034      14.702      9.0691      5.7591      4.3516    
  3.7044      3.3037      3.1463      3.1881      3.4374      3.9431      4.7629      6.7948      11.056      17.590    
  14.117      18.511      21.338      21.478      18.913      14.698      10.307      6.8956      4.9048      4.0170    
  3.4893      3.1532      3.0054      3.0020      3.1338      3.4456      3.9748      4.7630      6.4900      9.7153    
  7.6349      9.8549      11.580      12.046      11.052      9.0655      6.8936      5.2005      4.2115      3.6623    
  3.2557      3.0032      2.8886      2.8743      2.9437      3.1190      3.4436      3.9395      4.5989      5.7513    
  4.9548      5.7185      6.4375      6.7580      6.4896      5.7603      4.9053      4.2123      3.7267      3.3323    
  3.0440      2.8727      2.7988      2.7934      2.8398      2.9445      3.1333      3.4345      3.8551      4.3594    
  4.0668      4.3666      4.5861      4.6828      4.6016      4.3533      4.0190      3.6643      3.3332      3.0651    
  2.8791      2.7746      2.7371      2.7479      2.7943      2.8763      3.0040      3.1897      3.4385      3.7407    
  3.6588      3.8058      3.9021      3.9233      3.8551      3.7017      3.4888      3.2564      3.0440      2.8784    
  2.7693      2.7145      2.7062      2.7365      2.7988      2.8893      3.0059      3.1476      3.3108      3.4865    
  3.6160      3.6410      3.6160      3.5446      3.4358      3.3006      3.1512      3.0026      2.8718      2.7732    
  2.7138      2.6943      2.7138      2.7732      2.8718      3.0026      3.1512      3.3006      3.4358      3.5446    
  3.9021      3.8058      3.6588      3.4865      3.3109      3.1477      3.0060      2.8893      2.7988      2.7365    
  2.7062      2.7145      2.7693      2.8784      3.0441      3.2564      3.4888      3.7017      3.8551      3.9233    
  4.5861      4.3666      4.0668      3.7407      3.4385      3.1897      3.0040      2.8763      2.7943      2.7479    
  2.7371      2.7746      2.8791      3.0651      3.3332      3.6644      4.0191      4.3533      4.6015      4.6827    
  6.4375      5.7186      4.9549      4.3594      3.8551      3.4344      3.1333      2.9445      2.8398      2.7934    
  2.7988      2.8727      3.0441      3.3324      3.7268      4.2123      4.9052      5.7602      6.4894      6.7579    
  11.580      9.8550      7.6351      5.7514      4.5989      3.9395      3.4436      3.1190      2.9437      2.8742    
  2.8886      3.0032      3.2558      3.6624      4.2115      5.2003      6.8934      9.0652      11.051      12.046    
  21.338      18.511      14.117      9.7154      6.4900      4.7630      3.9748      3.4456      3.1338      3.0020    
  3.0054      3.1532      3.4893      4.0170      4.9047      6.8954      10.307      14.697      18.913      21.479    
  35.569      32.038      25.280      17.590      11.056      6.7948      4.7629      3.9432      3.4374      3.1881    
  3.1463      3.3037      3.7044      4.3516      5.7590      9.0689      14.701      22.034      29.407      34.550    
  52.456      49.160      40.503      29.408      18.918      11.053      6.4853      4.6002      3.8592      3.4372    
  3.3067      3.4372      3.8592      4.6002      6.4853      11.053      18.918      29.408      40.503      49.160    
  68.418      66.775      57.466      43.702      29.412      17.589      9.7082      5.7485      4.3636      3.7416    
  3.4807      3.5424      3.9277      4.6835      6.7519      12.043      21.482      34.549      49.154      61.755    
  58.386      61.748      57.473      47.163      34.214      22.026      12.790      7.2477      4.8394      3.9843    
  3.5354      3.4074      3.5541      4.0287      4.9258      7.4494      13.277      22.963      35.565      48.571    
  61.739      68.398      66.776      57.477      43.701      29.408      17.601      9.7227      5.7454      4.3546    
  3.7475      3.4907      3.5369      3.9186      4.6898      6.7606      12.034      21.467      34.549      49.156    
  57.466      66.775      68.417      61.754      49.153      34.549      21.482      12.043      6.7520      4.6836    
  3.9278      3.5424      3.4807      3.7416      4.3636      5.7486      9.7083      17.589      29.412      43.702    
  47.161      57.481      61.762      58.386      48.560      35.567      22.977      13.280      7.4392      4.9239    
  4.0375      3.5541      3.3975      3.5350      3.9934      4.8377      7.2355      12.789      22.038      34.220    
  34.211      43.702      49.163      48.569      42.102      32.047      21.481      12.888      7.4570      4.9649    
  4.0466      3.5190      3.2969      3.3308      3.6220      4.2039      5.3814      8.5580      14.702      23.700    
  22.020      29.402      34.549      35.572      32.050      25.298      17.600      11.052      6.7892      4.7643    
  3.9449      3.4336      3.1855      3.1496      3.3053      3.7004      4.3501      5.7635      9.0689      14.690    
  12.790      17.597      21.478      22.975      21.478      17.597      12.790      8.5544      5.7605      4.4058    
  3.7504      3.3042      3.0698      3.0017      3.0697      3.3042      3.7504      4.4058      5.7604      8.5542    
  7.2520      9.7263      12.046      13.281      12.886      11.048      8.5520      6.2904      4.7933      4.0161    
  3.5048      3.1505      2.9583      2.8896      2.9139      3.0399      3.3081      3.7497      4.3514      5.3899    
  4.8392      5.7480      6.7579      7.4458      7.4607      6.7896      5.7603      4.7938      4.1186      3.6393    
  3.2563      2.9993      2.8608      2.8100      2.8207      2.8900      3.0403      3.3048      3.7016      4.2060    
  3.9798      4.3502      4.6823      4.9261      4.9680      4.7667      4.4078      4.0179      3.6400      3.3024    
  3.0423      2.8729      2.7851      2.7575      2.7713      2.8208      2.9148      3.0701      3.3023      3.6132    
  3.5353      3.7445      3.9233      4.0334      4.0434      3.9432      3.7504      3.5055      3.2564      3.0417    
  2.8827      2.7833      2.7365      2.7310      2.7572      2.8100      2.8898      3.0009      3.1476      3.3291    
  3.4119      3.4951      3.5451      3.5539      3.5162      3.4301      3.3021      3.1497      2.9985      2.8719    
  2.7829      2.7328      2.7183      2.7363      2.7848      2.8607      2.9579      3.0694      3.1880      3.3056    
  3.5545      3.5403      3.4866      3.4032      3.3002      3.1863      3.0697      2.9584      2.8607      2.7848    
  2.7365      2.7186      2.7332      2.7834      2.8727      2.9992      3.1509      3.3048      3.4346      3.5203    
  4.0246      3.9149      3.7402      3.5365      3.3336      3.1522      3.0037      2.8911      2.8107      2.7578    
  2.7315      2.7368      2.7837      2.8828      3.0415      3.2562      3.5060      3.7508      3.9415      4.0379    
  4.9259      4.6874      4.3591      3.9886      3.6185      3.3036      3.0696      2.9143      2.8207      2.7710    
  2.7571      2.7849      2.8725      3.0412      3.3012      3.6394      4.0177      4.4066      4.7636      4.9647    
  7.4538      6.7652      5.7511      4.8369      4.2006      3.6965      3.3018      3.0390      2.8892      2.8199    
  2.8094      2.8606      2.9989      3.2556      3.6393      4.1203      4.7970      5.7640      6.7939      7.4667    
  13.277      12.037      9.7138      7.2411      5.3845      4.3503      3.7498      3.3084      3.0406      2.9144    
  2.8896      2.9587      3.1516      3.5059      4.0179      4.7981      6.2981      8.5594      11.052      12.887    
  22.961      21.464      17.588      12.791      8.5620      5.7660      4.4068      3.7516      3.3070      3.0708    
  3.0008      3.0708      3.3070      3.7516      4.4068      5.7660      8.5620      12.791      17.588      21.464    
  35.569      34.550      29.407      22.034      14.701      9.0689      5.7590      4.3516      3.7044      3.3037    
  3.1463      3.1881      3.4374      3.9432      4.7629      6.7948      11.056      17.590      25.280      32.038    
  48.578      49.166      43.705      34.218      23.700      14.690      8.5511      5.3869      4.2078      3.6159    
  3.3272      3.3030      3.5222      4.0408      4.9634      7.4648      12.889      21.467      32.036      42.108    
  38.331      42.108      40.508      34.211      25.494      16.929      10.308      6.2951      4.5199      3.8050    
  3.3805      3.2159      3.2659      3.5566      4.1406      5.1615      7.8487      13.280      21.339      30.536    
  42.102      48.568      49.163      43.702      34.211      23.700      14.702      8.5581      5.3815      4.2040    
  3.6220      3.3308      3.2969      3.5189      4.0465      4.9648      7.4569      12.888      21.481      32.047    
  40.502      49.160      52.456      49.160      40.502      29.408      18.918      11.053      6.4855      4.6003    
  3.8592      3.4372      3.3068      3.4372      3.8592      4.6002      6.4854      11.053      18.918      29.408    
  34.211      43.702      49.163      48.569      42.102      32.047      21.481      12.888      7.4570      4.9649    
  4.0466      3.5190      3.2969      3.3308      3.6220      4.2039      5.3814      8.5580      14.702      23.700    
  25.494      34.211      40.508      42.109      38.331      30.536      21.339      13.280      7.8489      5.1616    
  4.1407      3.5566      3.2658      3.2159      3.3805      3.8050      4.5199      6.2950      10.308      16.929    
  16.926      23.696      29.408      32.052      30.539      25.403      18.513      12.040      7.4608      5.0821    
  4.1158      3.5334      3.2113      3.1039      3.1693      3.4395      3.9486      4.7953      6.8942      10.973    
  10.307      14.697      18.913      21.479      21.338      18.512      14.117      9.7154      6.4900      4.7629    
  3.9748      3.4456      3.1338      3.0020      3.0054      3.1532      3.4893      4.0170      4.9047      6.8954    
  6.2982      8.5596      11.053      12.887      13.278      12.037      9.7138      7.2410      5.3844      4.3502    
  3.7497      3.3083      3.0406      2.9144      2.8896      2.9586      3.1516      3.5059      4.0179      4.7981    
  4.5216      5.3845      6.4895      7.4606      7.8505      7.4606      6.4894      5.3844      4.5214      3.9488    
  3.4886      3.1509      2.9447      2.8431      2.8139      2.8431      2.9447      3.1510      3.4888      3.9490    
  3.8022      4.2017      4.6003      4.9672      5.1644      5.0842      4.7642      4.3509      3.9491      3.5640    
  3.2387      3.0038      2.8607      2.7901      2.7691      2.7855      2.8428      2.9579      3.1520      3.4375    
  3.3789      3.6185      3.8551      4.0434      4.1391      4.1155      3.9753      3.7503      3.4887      3.2384    
  3.0331      2.8872      2.7989      2.7573      2.7500      2.7692      2.8139      2.8898      3.0059      3.1694    
  3.2187      3.3327      3.4372      3.5171      3.5538      3.5310      3.4443      3.3079      3.1506      3.0035    
  2.8870      2.8076      2.7625      2.7471      2.7574      2.7904      2.8434      2.9148      3.0032      3.1062    
  3.2674      3.3002      3.3109      3.3002      3.2674      3.2113      3.1333      3.0402      2.9446      2.8608    
  2.7989      2.7625      2.7507      2.7625      2.7989      2.8607      2.9446      3.0402      3.1334      3.2113    
  3.5538      3.5170      3.4372      3.3327      3.2187      3.1062      3.0032      2.9148      2.8434      2.7904    
  2.7574      2.7471      2.7625      2.8075      2.8870      3.0035      3.1507      3.3079      3.4444      3.5310    
  4.1390      4.0433      3.8551      3.6185      3.3789      3.1694      3.0059      2.8898      2.8139      2.7692    
  2.7500      2.7572      2.7988      2.8872      3.0332      3.2385      3.4888      3.7503      3.9754      4.1155    
  5.1642      4.9671      4.6002      4.2017      3.8022      3.4375      3.1520      2.9579      2.8428      2.7855    
  2.7691      2.7900      2.8607      3.0039      3.2387      3.5641      3.9492      4.3510      4.7642      5.0841    
  7.8503      7.4605      6.4894      5.3845      4.5215      3.9490      3.4887      3.1509      2.9447      2.8431    
  2.8139      2.8431      2.9447      3.1509      3.4887      3.9490      4.5215      5.3845      6.4894      7.4605    
  13.277      12.887      11.052      8.5594      6.2981      4.7981      4.0179      3.5059      3.1516      2.9587    
  2.8896      2.9144      3.0406      3.3084      3.7498      4.3503      5.3845      7.2411      9.7138      12.037    
  21.338      21.479      18.913      14.697      10.307      6.8954      4.9047      4.0170      3.4893      3.1532    
  3.0054      3.0020      3.1338      3.4456      3.9748      4.7630      6.4900      9.7154      14.117      18.511    
  30.539      32.051      29.408      23.695      16.926      10.973      6.8942      4.7953      3.9487      3.4395    
  3.1693      3.1039      3.2113      3.5334      4.1157      5.0821      7.4607      12.040      18.513      25.403    
  22.222      25.387      25.281      22.019      16.925      11.709      7.6401      5.2032      4.1172      3.5627    
  3.2064      3.0498      3.0524      3.2124      3.5785      4.1797      5.1633      7.4561      11.583      17.006    
  25.385      30.519      32.040      29.403      23.696      16.935      10.984      6.8973      4.7922      3.9488    
  3.4438      3.1700      3.1011      3.2123      3.5377      4.1169      5.0827      7.4687      12.050      18.510    
  25.280      32.037      35.569      34.549      29.407      22.034      14.702      9.0691      5.7591      4.3516    
  3.7044      3.3037      3.1463      3.1881      3.4374      3.9431      4.7629      6.7948      11.056      17.590    
  22.020      29.402      34.549      35.572      32.050      25.298      17.600      11.052      6.7892      4.7643    
  3.9449      3.4336      3.1855      3.1496      3.3053      3.7004      4.3501      5.7635      9.0689      14.690    
  16.926      23.696      29.408      32.052      30.539      25.403      18.513      12.040      7.4608      5.0821    
  4.1158      3.5334      3.2113      3.1039      3.1693      3.4395      3.9486      4.7953      6.8942      10.973    
  11.708      16.932      22.032      25.299      25.405      22.230      16.997      11.566      7.4462      5.1607    
  4.1774      3.5757      3.2129      3.0540      3.0481      3.2039      3.5640      4.1187      5.1994      7.6340    
  7.6398      10.981      14.698      17.598      18.513      16.997      13.667      9.8393      6.7583      4.9644    
  4.1146      3.5449      3.1823      3.0005      2.9498      3.0187      3.2391      3.6392      4.2114      5.3684    
  5.2051      6.8975      9.0671      11.050      12.038      11.566      9.8388      7.6238      5.7482      4.6009    
  3.9426      3.4461      3.1208      2.9445      2.8748      2.8896      3.0044      3.2565      3.6636      4.2147    
  4.1188      4.7939      5.7603      6.7896      7.4606      7.4457      6.7578      5.7478      4.8390      4.2058    
  3.7015      3.3047      3.0402      2.8900      2.8206      2.8099      2.8608      2.9993      3.2564      3.6394    
  3.5616      3.9479      4.3516      4.7653      5.0835      5.1618      4.9648      4.6008      4.2057      3.8074    
  3.4412      3.1535      2.9583      2.8432      2.7857      2.7689      2.7898      2.8606      3.0031      3.2368    
  3.2051      3.4413      3.7016      3.9431      4.1155      4.1782      4.1154      3.9429      3.7015      3.4412    
  3.2052      3.0189      2.8893      2.8100      2.7692      2.7569      2.7692      2.8100      2.8893      3.0188    
  3.0508      3.1700      3.3023      3.4315      3.5316      3.5749      3.5447      3.4462      3.3048      3.1536    
  3.0189      2.9136      2.8395      2.7935      2.7713      2.7694      2.7860      2.8210      2.8758      2.9522    
  3.0533      3.1025      3.1477      3.1863      3.2113      3.2124      3.1817      3.1204      3.0402      2.9584    
  2.8894      2.8395      2.8082      2.7932      2.7935      2.8100      2.8431      2.8899      2.9445      3.0003    
  3.2109      3.2111      3.1881      3.1508      3.1056      3.0552      3.0008      2.9443      2.8899      2.8433    
  2.8100      2.7933      2.7932      2.8084      2.8395      2.8891      2.9580      3.0395      3.1192      3.1800    
  3.5771      3.5351      3.4346      3.3038      3.1695      3.0493      2.9506      2.8749      2.8207      2.7859    
  2.7693      2.7712      2.7936      2.8398      2.9138      3.0186      3.1526      3.3033      3.4449      3.5449    
  4.1809      4.1170      3.9419      3.6986      3.4384      3.2037      3.0187      2.8895      2.8101      2.7693    
  2.7570      2.7693      2.8101      2.8895      3.0187      3.2037      3.4384      3.6986      3.9419      4.1170    
  5.1642      5.0841      4.7642      4.3510      3.9492      3.5641      3.2387      3.0039      2.8607      2.7900    
  2.7691      2.7855      2.8428      2.9579      3.1520      3.4375      3.8022      4.2017      4.6002      4.9671    
  7.4538      7.4667      6.7939      5.7640      4.7970      4.1203      3.6393      3.2556      2.9989      2.8606    
  2.8094      2.8199      2.8892      3.0390      3.3018      3.6965      4.2006      4.8369      5.7511      6.7652    
  11.580      12.046      11.051      9.0652      6.8934      5.2003      4.2115      3.6624      3.2558      3.0032    
  2.8886      2.8742      2.9437      3.1190      3.4436      3.9395      4.5989      5.7514      7.6351      9.8550    
  17.006      18.509      17.587      14.685      10.970      7.6335      5.3678      4.2128      3.6384      3.2374    
  3.0188      2.9506      2.9996      3.1809      3.5447      4.1150      4.9661      6.7668      9.8567      13.686    
  11.616      13.668      14.118      12.790      10.306      7.6393      5.5586      4.3366      3.7263      3.3014    
  3.0336      2.9135      2.9048      2.9920      3.2005      3.5768      4.1386      4.9262      6.4380      8.8581    
  13.667      16.997      18.512      17.598      14.697      10.981      7.6399      5.3685      4.2115      3.6392    
  3.2391      3.0187      2.9498      3.0005      3.1824      3.5449      4.1147      4.9645      6.7584      9.8392    
  14.117      18.511      21.338      21.478      18.913      14.698      10.307      6.8956      4.9048      4.0170    