PROCAR lm decomposed
# of k-points:   26         # of bands:  11         # of ions:   1

 k-point    1 :    0.06250000 0.06250000 0.06250000     weight = 0.01562500

band   1 # energy   -1.78131970 # occ.  1.00000000
 
ion      s     py     pz     px    dxy    dyz    dz2    dxz    dx2    tot
  1  0.635  0.020  0.020  0.020  0.003  0.003  0.000  0.003  0.000  0.704
 
band   2 # energy    2.21076920 # occ.  1.00000000
 
ion      s     py     pz     px    dxy    dyz    dz2    dxz    dx2    tot
  1  0.000  0.001  0.001  0.000  0.472  0.000  0.018  0.472  0.006  0.970
 
band   3 # energy    2.21083289 # occ.  1.00000000
 
ion      s     py     pz     px    dxy    dyz    dz2    dxz    dx2    tot
  1  0.000  0.000  0.000  0.002  0.157  0.629  0.006  0.157  0.018  0.970
 
band   4 # energy    2.97247114 # occ.  1.00000000
 
ion      s     py     pz     px    dxy    dyz    dz2    dxz    dx2    tot
  1  0.003  0.003  0.003  0.003  0.321  0.321  0.000  0.321  0.000  0.975
 
band   5 # energy    3.49719882 # occ.  1.00000000
 
ion      s     py     pz     px    dxy    dyz    dz2    dxz    dx2    tot
  1  0.000  0.000  0.000  0.000  0.013  0.000  0.710  0.013  0.237  0.972
 
band   6 # energy    3.49721735 # occ.  1.00000000
 
ion      s     py     pz     px    dxy    dyz    dz2    dxz    dx2    tot
  1  0.000  0.000  0.000  0.000  0.004  0.017  0.237  0.004  0.710  0.972
 
band   7 # energy   26.14269576 # occ.  0.00000000
 
ion      s     py     pz     px    dxy    dyz    dz2    dxz    dx2    tot
  1  0.000  0.055  0.055  0.000  0.148  0.000  0.132  0.148  0.044  0.583
 
band   8 # energy   26.14272376 # occ.  0.00000000
 
ion      s     py     pz     px    dxy    dyz    dz2    dxz    dx2    tot
  1  0.000  0.018  0.018  0.074  0.049  0.197  0.044  0.049  0.132  0.583
 
band   9 # energy   29.69831179 # occ.  0.00000000
 
ion      s     py     pz     px    dxy    dyz    dz2    dxz    dx2    tot
  1  0.074  0.165  0.165  0.165  0.154  0.154  0.000  0.154  0.000  1.029
 
band  10 # energy   31.01645063 # occ.  0.00000000
 
ion      s     py     pz     px    dxy    dyz    dz2    dxz    dx2    tot
  1  0.000  0.000  0.000  0.000  0.000  0.000  0.000  0.000  0.000  0.000
 
band  11 # energy   35.48041544 # occ.  0.00000000
 
ion      s     py     pz     px    dxy    dyz    dz2    dxz    dx2    tot
  1  0.000  0.061  0.029  0.026  0.132  0.118  0.070  0.277  0.116  0.829
 

 k-point    2 :    0.18750000 0.06250000 0.06250000     weight = 0.04687500

band   1 # energy   -0.31162882 # occ.  1.00000000
 
ion      s     py     pz     px    dxy    dyz    dz2    dxz    dx2    tot
  1  0.473  0.054  0.054  0.017  0.008  0.099  0.006  0.008  0.017  0.735
 
band   2 # energy    1.83425801 # occ.  1.00000000
 
ion      s     py     pz     px    dxy    dyz    dz2    dxz    dx2    tot
  1  0.000  0.002  0.002  0.000  0.466  0.000  0.018  0.466  0.006  0.961
 
band   3 # energy    2.09953595 # occ.  1.00000000
 
ion      s     py     pz     px    dxy    dyz    dz2    dxz    dx2    tot
  1  0.023  0.020  0.020  0.001  0.106  0.511  0.036  0.106  0.109  0.933
 
band   4 # energy    3.44243728 # occ.  1.00000000
 
ion      s     py     pz     px    dxy    dyz    dz2    dxz    dx2    tot
  1  0.001  0.000  0.000  0.000  0.013  0.156  0.198  0.013  0.593  0.975
 
band   5 # energy    3.60650834 # occ.  1.00000000
 
ion      s     py     pz     px    dxy    dyz    dz2    dxz    dx2    tot
  1  0.000  0.000  0.000  0.000  0.014  0.000  0.713  0.014  0.238  0.978
 
band   6 # energy    3.98692667 # occ.  1.00000000
 
ion      s     py     pz     px    dxy    dyz    dz2    dxz    dx2    tot
  1  0.023  0.014  0.014  0.010  0.359  0.184  0.000  0.359  0.001  0.963
 
band   7 # energy   20.71341589 # occ.  0.00000000
 
ion      s     py     pz     px    dxy    dyz    dz2    dxz    dx2    tot
  1  0.058  0.115  0.115  0.023  0.008  0.303  0.034  0.008  0.101  0.765
 
band   8 # energy   23.83649696 # occ.  0.00000000
 
ion      s     py     pz     px    dxy    dyz    dz2    dxz    dx2    tot
  1  0.000  0.100  0.100  0.000  0.169  0.000  0.073  0.169  0.024  0.634
 
band   9 # energy   26.06325957 # occ.  0.00000000
 
ion      s     py     pz     px    dxy    dyz    dz2    dxz    dx2    tot
  1  0.124  0.057  0.057  0.382  0.106  0.002  0.010  0.106  0.029  0.871
 
band  10 # energy   30.99148572 # occ.  0.00000000
 
ion      s     py     pz     px    dxy    dyz    dz2    dxz    dx2    tot
  1  0.000  0.005  0.005  0.000  0.196  0.000  0.027  0.196  0.009  0.439
 
band  11 # energy   34.65289167 # occ.  0.00000000
 
ion      s     py     pz     px    dxy    dyz    dz2    dxz    dx2    tot
  1  0.032  0.049  0.049  0.142  0.063  0.092  0.112  0.063  0.336  0.939
 

 k-point    3 :    0.31250000 0.06250000 0.06250000     weight = 0.04687500

band   1 # energy    0.39421552 # occ.  1.00000000
 
ion      s     py     pz     px    dxy    dyz    dz2    dxz    dx2    tot
  1  0.166  0.013  0.013  0.014  0.000  0.449  0.050  0.000  0.150  0.857
 
band   2 # energy    1.51012591 # occ.  1.00000000
 
ion      s     py     pz     px    dxy    dyz    dz2    dxz    dx2    tot
  1  0.000  0.003  0.003  0.000  0.471  0.000  0.006  0.471  0.002  0.956
 
band   3 # energy    3.12554340 # occ.  1.00000000
 
ion      s     py     pz     px    dxy    dyz    dz2    dxz    dx2    tot
  1  0.087  0.095  0.095  0.000  0.213  0.030  0.031  0.213  0.093  0.858
 
band   4 # energy    3.58062095 # occ.  1.00000000
 
ion      s     py     pz     px    dxy    dyz    dz2    dxz    dx2    tot
  1  0.001  0.003  0.003  0.001  0.026  0.302  0.155  0.026  0.465  0.981
 
band   5 # energy    3.69480135 # occ.  1.00000000
 
ion      s     py     pz     px    dxy    dyz    dz2    dxz    dx2    tot
  1  0.000  0.000  0.000  0.000  0.004  0.000  0.731  0.004  0.244  0.984
 
band   6 # energy    5.55155944 # occ.  0.39666794
 
ion      s     py     pz     px    dxy    dyz    dz2    dxz    dx2    tot
  1  0.079  0.082  0.082  0.009  0.255  0.123  0.002  0.255  0.005  0.891
 
band   7 # energy   15.32436320 # occ.  0.00000000
 
ion      s     py     pz     px    dxy    dyz    dz2    dxz    dx2    tot
  1  0.215  0.107  0.107  0.013  0.005  0.288  0.022  0.005  0.066  0.826
 
band   8 # energy   22.22534656 # occ.  0.00000000
 
ion      s     py     pz     px    dxy    dyz    dz2    dxz    dx2    tot
  1  0.000  0.126  0.126  0.000  0.159  0.000  0.021  0.159  0.007  0.599
 
band   9 # energy   23.87144911 # occ.  0.00000000
 
ion      s     py     pz     px    dxy    dyz    dz2    dxz    dx2    tot
  1  0.129  0.010  0.010  0.517  0.034  0.012  0.013  0.034  0.038  0.797
 
band  10 # energy   30.20782668 # occ.  0.00000000
 
ion      s     py     pz     px    dxy    dyz    dz2    dxz    dx2    tot
  1  0.000  0.010  0.010  0.000  0.355  0.000  0.007  0.355  0.002  0.741
 
band  11 # energy   33.94720352 # occ.  0.00000000
 
ion      s     py     pz     px    dxy    dyz    dz2    dxz    dx2    tot
  1  0.100  0.021  0.021  0.131  0.017  0.000  0.156  0.017  0.467  0.929
 

 k-point    4 :    0.43750000 0.06250000 0.06250000     weight = 0.02343750

band   1 # energy    0.33029734 # occ.  1.00000000
 
ion      s     py     pz     px    dxy    dyz    dz2    dxz    dx2    tot
  1  0.102  0.000  0.000  0.013  0.000  0.502  0.067  0.000  0.200  0.883
 
band   2 # energy    1.38616227 # occ.  1.00000000
 
ion      s     py     pz     px    dxy    dyz    dz2    dxz    dx2    tot
  1  0.000  0.003  0.003  0.000  0.474  0.000  0.000  0.474  0.000  0.955
 
band   3 # energy    3.63956890 # occ.  1.00000000
 
ion      s     py     pz     px    dxy    dyz    dz2    dxz    dx2    tot
  1  0.010  0.000  0.000  0.001  0.000  0.303  0.167  0.000  0.502  0.983
 
band   4 # energy    3.72667196 # occ.  1.00000000
 
ion      s     py     pz     px    dxy    dyz    dz2    dxz    dx2    tot
  1  0.000  0.000  0.000  0.000  0.000  0.000  0.740  0.000  0.247  0.986
 
band   5 # energy    3.98589004 # occ.  1.00000000
 
ion      s     py     pz     px    dxy    dyz    dz2    dxz    dx2    tot
  1  0.000  0.087  0.087  0.000  0.365  0.000  0.000  0.365  0.000  0.904
 
band   6 # energy    7.24721591 # occ.  0.00000000
 
ion      s     py     pz     px    dxy    dyz    dz2    dxz    dx2    tot
  1  0.000  0.245  0.245  0.000  0.139  0.000  0.000  0.139  0.000  0.768
 
band   7 # energy   12.17356349 # occ.  0.00000000
 
ion      s     py     pz     px    dxy    dyz    dz2    dxz    dx2    tot
  1  0.424  0.000  0.000  0.018  0.000  0.359  0.021  0.000  0.064  0.886
 
band   8 # energy   21.64803172 # occ.  0.00000000
 
ion      s     py     pz     px    dxy    dyz    dz2    dxz    dx2    tot
  1  0.000  0.135  0.135  0.000  0.152  0.000  0.000  0.152  0.000  0.573
 
band   9 # energy   23.06090368 # occ.  0.00000000
 
ion      s     py     pz     px    dxy    dyz    dz2    dxz    dx2    tot
  1  0.128  0.000  0.000  0.567  0.000  0.023  0.012  0.000  0.037  0.768
 
band  10 # energy   29.91996504 # occ.  0.00000000
 
ion      s     py     pz     px    dxy    dyz    dz2    dxz    dx2    tot
  1  0.000  0.011  0.011  0.000  0.398  0.000  0.000  0.398  0.000  0.819
 
band  11 # energy   33.78680690 # occ.  0.00000000
 
ion      s     py     pz     px    dxy    dyz    dz2    dxz    dx2    tot
  1  0.137  0.000  0.000  0.127  0.000  0.011  0.175  0.000  0.525  0.974
 

 k-point    5 :   -0.06250000 0.06250000 0.06250000     weight = 0.01171875

band   1 # energy   -2.37564487 # occ.  1.00000000
 
ion      s     py     pz     px    dxy    dyz    dz2    dxz    dx2    tot
  1  0.679  0.000  0.000  0.021  0.000  0.000  0.000  0.000  0.001  0.701
 
band   2 # energy    2.39753002 # occ.  1.00000000
 
ion      s     py     pz     px    dxy    dyz    dz2    dxz    dx2    tot
  1  0.000  0.001  0.001  0.000  0.487  0.000  0.000  0.487  0.000  0.977
 
band   3 # energy    2.39767902 # occ.  1.00000000
 
ion      s     py     pz     px    dxy    dyz    dz2    dxz    dx2    tot
  1  0.000  0.001  0.001  0.000  0.487  0.000  0.000  0.487  0.000  0.977
 
band   4 # energy    2.47502807 # occ.  1.00000000
 
ion      s     py     pz     px    dxy    dyz    dz2    dxz    dx2    tot
  1  0.000  0.000  0.000  0.000  0.000  0.977  0.000  0.000  0.000  0.977
 
band   5 # energy    3.42805402 # occ.  1.00000000
 
ion      s     py     pz     px    dxy    dyz    dz2    dxz    dx2    tot
  1  0.000  0.000  0.000  0.000  0.000  0.000  0.725  0.000  0.242  0.967
 
band   6 # energy    3.61222186 # occ.  1.00000000
 
ion      s     py     pz     px    dxy    dyz    dz2    dxz    dx2    tot
  1  0.001  0.000  0.000  0.000  0.000  0.000  0.244  0.000  0.731  0.976
 
band   7 # energy   28.23104018 # occ.  0.00000000
 
ion      s     py     pz     px    dxy    dyz    dz2    dxz    dx2    tot
  1  0.000  0.000  0.000  0.000  0.000  0.000  0.215  0.000  0.072  0.286
 
band   8 # energy   29.52009365 # occ.  0.00000000
 
ion      s     py     pz     px    dxy    dyz    dz2    dxz    dx2    tot
  1  0.000  0.019  0.019  0.000  0.169  0.000  0.000  0.169  0.000  0.375
 
band   9 # energy   29.52014633 # occ.  0.00000000
 
ion      s     py     pz     px    dxy    dyz    dz2    dxz    dx2    tot
  1  0.000  0.019  0.019  0.000  0.169  0.000  0.000  0.169  0.000  0.375
 
band  10 # energy   32.42486821 # occ.  0.00000000
 
ion      s     py     pz     px    dxy    dyz    dz2    dxz    dx2    tot
  1  0.018  0.000  0.000  0.294  0.000  0.000  0.077  0.000  0.232  0.622
 
band  11 # energy   34.27427952 # occ.  0.00000000
 
ion      s     py     pz     px    dxy    dyz    dz2    dxz    dx2    tot
  1  0.000  0.250  0.142  0.000  0.323  0.000  0.000  0.183  0.000  0.898
 

 k-point    6 :    0.18750000 0.18750000 0.06250000     weight = 0.04687500

band   1 # energy    0.86650786 # occ.  1.00000000
 
ion      s     py     pz     px    dxy    dyz    dz2    dxz    dx2    tot
  1  0.217  0.032  0.039  0.032  0.017  0.216  0.061  0.216  0.000  0.831
 
band   2 # energy    1.61928485 # occ.  1.00000000
 
ion      s     py     pz     px    dxy    dyz    dz2    dxz    dx2    tot
  1  0.000  0.017  0.000  0.017  0.000  0.348  0.000  0.348  0.202  0.932
 
band   3 # energy    1.90154775 # occ.  1.00000000
 
ion      s     py     pz     px    dxy    dyz    dz2    dxz    dx2    tot
  1  0.064  0.008  0.073  0.008  0.687  0.032  0.000  0.031  0.000  0.903
 
band   4 # energy    3.51711755 # occ.  1.00000000
 
ion      s     py     pz     px    dxy    dyz    dz2    dxz    dx2    tot
  1  0.000  0.001  0.000  0.001  0.000  0.111  0.000  0.111  0.755  0.979
 
band   5 # energy    3.73258290 # occ.  1.00000000
 
ion      s     py     pz     px    dxy    dyz    dz2    dxz    dx2    tot
  1  0.006  0.000  0.001  0.000  0.000  0.038  0.902  0.038  0.000  0.984
 
band   6 # energy    5.72298195 # occ. -0.02295367
 
ion      s     py     pz     px    dxy    dyz    dz2    dxz    dx2    tot
  1  0.093  0.033  0.066  0.033  0.263  0.201  0.019  0.201  0.000  0.909
 
band   7 # energy   18.24052579 # occ.  0.00000000
 
ion      s     py     pz     px    dxy    dyz    dz2    dxz    dx2    tot
  1  0.000  0.160  0.000  0.160  0.000  0.168  0.000  0.168  0.124  0.781
 
band   8 # energy   19.11827133 # occ.  0.00000000
 
ion      s     py     pz     px    dxy    dyz    dz2    dxz    dx2    tot
  1  0.202  0.014  0.251  0.014  0.079  0.094  0.017  0.094  0.000  0.765
 
band   9 # energy   22.98406298 # occ.  0.00000000
 
ion      s     py     pz     px    dxy    dyz    dz2    dxz    dx2    tot
  1  0.146  0.198  0.006  0.198  0.171  0.007  0.028  0.007  0.000  0.762
 
band  10 # energy   32.93100504 # occ.  0.00000000
 
ion      s     py     pz     px    dxy    dyz    dz2    dxz    dx2    tot
  1  0.000  0.015  0.000  0.015  0.000  0.097  0.000  0.097  0.172  0.396
 
band  11 # energy   36.17277529 # occ.  0.00000000
 
ion      s     py     pz     px    dxy    dyz    dz2    dxz    dx2    tot
  1  0.020  0.024  0.038  0.024  0.384  0.160  0.009  0.160  0.000  0.818
 

 k-point    7 :    0.31250000 0.18750000 0.06250000     weight = 0.09375000

band   1 # energy    0.91701396 # occ.  1.00000000
 
ion      s     py     pz     px    dxy    dyz    dz2    dxz    dx2    tot
  1  0.068  0.001  0.002  0.035  0.052  0.535  0.055  0.049  0.101  0.900
 
band   2 # energy    1.46387485 # occ.  1.00000000
 
ion      s     py     pz     px    dxy    dyz    dz2    dxz    dx2    tot
  1  0.000  0.017  0.009  0.012  0.318  0.037  0.001  0.460  0.082  0.936
 
band   3 # energy    2.59433517 # occ.  1.00000000
 
ion      s     py     pz     px    dxy    dyz    dz2    dxz    dx2    tot
  1  0.019  0.063  0.089  0.001  0.373  0.003  0.120  0.162  0.063  0.891
 
band   4 # energy    3.65129759 # occ.  1.00000000
 
ion      s     py     pz     px    dxy    dyz    dz2    dxz    dx2    tot
  1  0.002  0.001  0.000  0.002  0.000  0.219  0.051  0.049  0.657  0.983
 
band   5 # energy    3.83417264 # occ.  1.00000000
 
ion      s     py     pz     px    dxy    dyz    dz2    dxz    dx2    tot
  1  0.004  0.004  0.006  0.000  0.073  0.015  0.734  0.096  0.050  0.983
 
band   6 # energy    8.38654634 # occ.  0.00000000
 
ion      s     py     pz     px    dxy    dyz    dz2    dxz    dx2    tot
  1  0.086  0.124  0.187  0.021  0.156  0.077  0.029  0.145  0.000  0.824
 
band   7 # energy   13.68336950 # occ.  0.00000000
 
ion      s     py     pz     px    dxy    dyz    dz2    dxz    dx2    tot
  1  0.239  0.118  0.031  0.071  0.013  0.270  0.004  0.018  0.059  0.824
 
band   8 # energy   17.57709998 # occ.  0.00000000
 
ion      s     py     pz     px    dxy    dyz    dz2    dxz    dx2    tot
  1  0.175  0.049  0.104  0.145  0.093  0.002  0.000  0.164  0.027  0.760
 
band   9 # energy   21.74924191 # occ.  0.00000000
 
ion      s     py     pz     px    dxy    dyz    dz2    dxz    dx2    tot
  1  0.138  0.108  0.051  0.236  0.110  0.039  0.009  0.045  0.004  0.739
 
band  10 # energy   33.13811186 # occ.  0.00000000
 
ion      s     py     pz     px    dxy    dyz    dz2    dxz    dx2    tot
  1  0.008  0.000  0.003  0.030  0.133  0.006  0.014  0.212  0.156  0.564
 
band  11 # energy   37.41091730 # occ.  0.00000000
 
ion      s     py     pz     px    dxy    dyz    dz2    dxz    dx2    tot
  1  0.003  0.068  0.000  0.001  0.166  0.064  0.082  0.012  0.157  0.553
 

 k-point    8 :   -0.18750000 0.18750000 0.06250000     weight = 0.04687500

band   1 # energy   -1.23668507 # occ.  1.00000000
 
ion      s     py     pz     px    dxy    dyz    dz2    dxz    dx2    tot
  1  0.584  0.017  0.000  0.075  0.019  0.000  0.008  0.000  0.006  0.709
 
band   2 # energy    2.15160290 # occ.  1.00000000
 
ion      s     py     pz     px    dxy    dyz    dz2    dxz    dx2    tot
  1  0.000  0.000  0.002  0.000  0.000  0.381  0.000  0.588  0.000  0.970
 
band   3 # energy    2.36472850 # occ.  1.00000000
 
ion      s     py     pz     px    dxy    dyz    dz2    dxz    dx2    tot
  1  0.008  0.012  0.000  0.007  0.810  0.000  0.105  0.000  0.014  0.955
 
band   4 # energy    3.06854524 # occ.  1.00000000
 
ion      s     py     pz     px    dxy    dyz    dz2    dxz    dx2    tot
  1  0.000  0.000  0.006  0.000  0.000  0.594  0.000  0.378  0.000  0.977
 
band   5 # energy    3.21112997 # occ.  1.00000000
 
ion      s     py     pz     px    dxy    dyz    dz2    dxz    dx2    tot
  1  0.000  0.000  0.000  0.000  0.126  0.000  0.658  0.000  0.178  0.964
 
band   6 # energy    3.70728022 # occ.  1.00000000
 
ion      s     py     pz     px    dxy    dyz    dz2    dxz    dx2    tot
  1  0.007  0.000  0.000  0.001  0.004  0.000  0.188  0.000  0.778  0.978
 
band   7 # energy   23.55645744 # occ.  0.00000000
 
ion      s     py     pz     px    dxy    dyz    dz2    dxz    dx2    tot
  1  0.027  0.127  0.000  0.056  0.290  0.000  0.194  0.000  0.014  0.706
 
band   8 # energy   27.10518353 # occ.  0.00000000
 
ion      s     py     pz     px    dxy    dyz    dz2    dxz    dx2    tot
  1  0.026  0.000  0.000  0.141  0.058  0.000  0.055  0.000  0.149  0.429
 
band   9 # energy   27.64086824 # occ.  0.00000000
 
ion      s     py     pz     px    dxy    dyz    dz2    dxz    dx2    tot
  1  0.000  0.000  0.211  0.000  0.000  0.028  0.000  0.605  0.000  0.844
 
band  10 # energy   31.75940032 # occ.  0.00000000
 
ion      s     py     pz     px    dxy    dyz    dz2    dxz    dx2    tot
  1  0.001  0.262  0.000  0.073  0.232  0.000  0.142  0.000  0.003  0.712
 
band  11 # energy   31.77074124 # occ.  0.00000000
 
ion      s     py     pz     px    dxy    dyz    dz2    dxz    dx2    tot
  1  0.000  0.000  0.327  0.000  0.000  0.558  0.000  0.002  0.000  0.887
 

 k-point    9 :    0.31250000 0.31250000 0.06250000     weight = 0.01562500

band   1 # energy    1.14046137 # occ.  1.00000000
 
ion      s     py     pz     px    dxy    dyz    dz2    dxz    dx2    tot
  1  0.033  0.006  0.006  0.006  0.294  0.294  0.000  0.294  0.000  0.932
 
band   2 # energy    1.90663446 # occ.  1.00000000
 
ion      s     py     pz     px    dxy    dyz    dz2    dxz    dx2    tot
  1  0.000  0.016  0.021  0.075  0.104  0.367  0.068  0.080  0.171  0.903
 
band   3 # energy    1.90671208 # occ.  1.00000000
 
ion      s     py     pz     px    dxy    dyz    dz2    dxz    dx2    tot
  1  0.000  0.059  0.054  0.000  0.264  0.001  0.171  0.288  0.068  0.903
 
band   4 # energy    3.77909837 # occ.  1.00000000
 
ion      s     py     pz     px    dxy    dyz    dz2    dxz    dx2    tot
  1  0.000  0.004  0.000  0.003  0.003  0.109  0.013  0.149  0.703  0.984
 
band   5 # energy    3.77914484 # occ.  1.00000000
 
ion      s     py     pz     px    dxy    dyz    dz2    dxz    dx2    tot
  1  0.000  0.001  0.005  0.002  0.171  0.065  0.703  0.025  0.013  0.984
 
band   6 # energy   11.92011217 # occ.  0.00000000
 
ion      s     py     pz     px    dxy    dyz    dz2    dxz    dx2    tot
  1  0.000  0.060  0.086  0.291  0.060  0.202  0.017  0.042  0.039  0.797
 
band   7 # energy   11.92019293 # occ.  0.00000000
 
ion      s     py     pz     px    dxy    dyz    dz2    dxz    dx2    tot
  1  0.000  0.231  0.205  0.001  0.142  0.001  0.039  0.161  0.017  0.797
 
band   8 # energy   14.39283091 # occ.  0.00000000
 
ion      s     py     pz     px    dxy    dyz    dz2    dxz    dx2    tot
  1  0.577  0.002  0.002  0.002  0.077  0.077  0.000  0.077  0.000  0.815
 
band   9 # energy   21.26230314 # occ.  0.00000000
 
ion      s     py     pz     px    dxy    dyz    dz2    dxz    dx2    tot
  1  0.138  0.125  0.125  0.125  0.081  0.081  0.000  0.081  0.000  0.755
 
band  10 # energy   35.60776887 # occ.  0.00000000
 
ion      s     py     pz     px    dxy    dyz    dz2    dxz    dx2    tot
  1  0.000  0.001  0.029  0.019  0.055  0.036  0.287  0.002  0.036  0.466
 
band  11 # energy   35.60782734 # occ.  0.00000000
 
ion      s     py     pz     px    dxy    dyz    dz2    dxz    dx2    tot
  1  0.000  0.032  0.004  0.014  0.007  0.026  0.036  0.060  0.287  0.466
 

 k-point   10 :   -0.31250000 0.31250000 0.06250000     weight = 0.04687500

band   1 # energy    0.09980477 # occ.  1.00000000
 
ion      s     py     pz     px    dxy    dyz    dz2    dxz    dx2    tot
  1  0.307  0.018  0.000  0.067  0.266  0.000  0.129  0.000  0.010  0.797
 
band   2 # energy    1.78375741 # occ.  1.00000000
 
ion      s     py     pz     px    dxy    dyz    dz2    dxz    dx2    tot
  1  0.000  0.000  0.002  0.000  0.000  0.437  0.000  0.524  0.000  0.963
 
band   3 # energy    2.63195584 # occ.  1.00000000
 
ion      s     py     pz     px    dxy    dyz    dz2    dxz    dx2    tot
  1  0.079  0.055  0.000  0.067  0.155  0.000  0.272  0.000  0.246  0.873
 
band   4 # energy    3.42865122 # occ.  1.00000000
 
ion      s     py     pz     px    dxy    dyz    dz2    dxz    dx2    tot
  1  0.002  0.012  0.000  0.013  0.476  0.000  0.466  0.000  0.000  0.969
 
band   5 # energy    3.96916353 # occ.  1.00000000
 
ion      s     py     pz     px    dxy    dyz    dz2    dxz    dx2    tot
  1  0.058  0.019  0.000  0.034  0.030  0.000  0.082  0.000  0.725  0.948
 
band   6 # energy    4.02747461 # occ.  1.00000000
 
ion      s     py     pz     px    dxy    dyz    dz2    dxz    dx2    tot
  1  0.000  0.000  0.007  0.000  0.000  0.537  0.000  0.438  0.000  0.982
 
band   7 # energy   17.84296909 # occ.  0.00000000
 
ion      s     py     pz     px    dxy    dyz    dz2    dxz    dx2    tot
  1  0.136  0.171  0.000  0.091  0.293  0.000  0.115  0.000  0.007  0.812
 
band   8 # energy   24.81742162 # occ.  0.00000000
 
ion      s     py     pz     px    dxy    dyz    dz2    dxz    dx2    tot
  1  0.030  0.052  0.000  0.149  0.004  0.000  0.077  0.000  0.069  0.381
 
band   9 # energy   25.56164453 # occ.  0.00000000
 
ion      s     py     pz     px    dxy    dyz    dz2    dxz    dx2    tot
  1  0.000  0.000  0.441  0.000  0.000  0.025  0.000  0.447  0.000  0.913
 
band  10 # energy   29.82497807 # occ.  0.00000000
 
ion      s     py     pz     px    dxy    dyz    dz2    dxz    dx2    tot
  1  0.000  0.000  0.214  0.000  0.000  0.603  0.000  0.146  0.000  0.962
 
band  11 # energy   31.82522969 # occ.  0.00000000
 
ion      s     py     pz     px    dxy    dyz    dz2    dxz    dx2    tot
  1  0.081  0.230  0.000  0.001  0.017  0.000  0.463  0.000  0.003  0.793
 

 k-point   11 :   -0.18750000 0.31250000 0.06250000     weight = 0.04687500

band   1 # energy    0.06101601 # occ.  1.00000000
 
ion      s     py     pz     px    dxy    dyz    dz2    dxz    dx2    tot
  1  0.404  0.011  0.011  0.119  0.058  0.000  0.022  0.058  0.066  0.749
 
band   2 # energy    1.98650504 # occ.  1.00000000
 
ion      s     py     pz     px    dxy    dyz    dz2    dxz    dx2    tot
  1  0.000  0.009  0.009  0.000  0.281  0.000  0.269  0.281  0.090  0.938
 
band   3 # energy    2.19665990 # occ.  1.00000000
 
ion      s     py     pz     px    dxy    dyz    dz2    dxz    dx2    tot
  1  0.018  0.005  0.005  0.023  0.199  0.497  0.001  0.199  0.003  0.949
 
band   4 # energy    3.10402935 # occ.  1.00000000
 
ion      s     py     pz     px    dxy    dyz    dz2    dxz    dx2    tot
  1  0.000  0.002  0.002  0.000  0.191  0.000  0.436  0.191  0.145  0.966
 
band   5 # energy    3.75412161 # occ.  1.00000000
 
ion      s     py     pz     px    dxy    dyz    dz2    dxz    dx2    tot
  1  0.001  0.002  0.002  0.000  0.150  0.305  0.093  0.150  0.278  0.983
 
band   6 # energy    4.18319318 # occ.  1.00000000
 
ion      s     py     pz     px    dxy    dyz    dz2    dxz    dx2    tot
  1  0.065  0.008  0.008  0.031  0.070  0.173  0.131  0.070  0.395  0.951
 
band   7 # energy   20.76510672 # occ.  0.00000000
 
ion      s     py     pz     px    dxy    dyz    dz2    dxz    dx2    tot
  1  0.000  0.125  0.125  0.000  0.136  0.000  0.183  0.136  0.061  0.768
 
band   8 # energy   21.82060277 # occ.  0.00000000
 
ion      s     py     pz     px    dxy    dyz    dz2    dxz    dx2    tot
  1  0.141  0.069  0.069  0.171  0.145  0.019  0.001  0.145  0.004  0.766
 
band   9 # energy   28.20109136 # occ.  0.00000000
 
ion      s     py     pz     px    dxy    dyz    dz2    dxz    dx2    tot
  1  0.000  0.058  0.058  0.000  0.132  0.000  0.202  0.132  0.067  0.650
 
band  10 # energy   28.57986193 # occ.  0.00000000
 
ion      s     py     pz     px    dxy    dyz    dz2    dxz    dx2    tot
  1  0.001  0.221  0.221  0.063  0.014  0.103  0.004  0.014  0.011  0.650
 
band  11 # energy   31.99123351 # occ.  0.00000000
 
ion      s     py     pz     px    dxy    dyz    dz2    dxz    dx2    tot
  1  0.102  0.001  0.001  0.070  0.123  0.356  0.012  0.123  0.035  0.823
 

 k-point   12 :   -0.43750000 0.43750000 0.06250000     weight = 0.04687500

band   1 # energy    0.23824130 # occ.  1.00000000
 
ion      s     py     pz     px    dxy    dyz    dz2    dxz    dx2    tot
  1  0.121  0.000  0.000  0.011  0.446  0.000  0.295  0.000  0.001  0.874
 
band   2 # energy    1.53324597 # occ.  1.00000000
 
ion      s     py     pz     px    dxy    dyz    dz2    dxz    dx2    tot
  1  0.000  0.000  0.002  0.000  0.000  0.466  0.000  0.491  0.000  0.959
 
band   3 # energy    3.24251979 # occ.  1.00000000
 
ion      s     py     pz     px    dxy    dyz    dz2    dxz    dx2    tot
  1  0.013  0.030  0.000  0.034  0.017  0.000  0.117  0.000  0.723  0.935
 
band   4 # energy    3.56718990 # occ.  1.00000000
 
ion      s     py     pz     px    dxy    dyz    dz2    dxz    dx2    tot
  1  0.007  0.004  0.000  0.003  0.328  0.000  0.511  0.000  0.125  0.978
 
band   5 # energy    4.78272618 # occ.  1.00000095
 
ion      s     py     pz     px    dxy    dyz    dz2    dxz    dx2    tot
  1  0.000  0.000  0.002  0.000  0.000  0.511  0.000  0.479  0.000  0.991
 
band   6 # energy    5.87675262 # occ. -0.01646214
 
ion      s     py     pz     px    dxy    dyz    dz2    dxz    dx2    tot
  1  0.072  0.214  0.000  0.262  0.059  0.000  0.010  0.000  0.139  0.758
 
band   7 # energy   13.10732732 # occ.  0.00000000
 
ion      s     py     pz     px    dxy    dyz    dz2    dxz    dx2    tot
  1  0.342  0.086  0.000  0.025  0.318  0.000  0.092  0.000  0.003  0.866
 
band   8 # energy   23.51966386 # occ.  0.00000000
 
ion      s     py     pz     px    dxy    dyz    dz2    dxz    dx2    tot
  1  0.028  0.102  0.000  0.132  0.001  0.000  0.076  0.000  0.008  0.348
 
band   9 # energy   24.09740798 # occ.  0.00000000
 
ion      s     py     pz     px    dxy    dyz    dz2    dxz    dx2    tot
  1  0.000  0.000  0.582  0.000  0.000  0.061  0.000  0.198  0.000  0.841
 
band  10 # energy   29.01748624 # occ.  0.00000000
 
ion      s     py     pz     px    dxy    dyz    dz2    dxz    dx2    tot
  1  0.000  0.000  0.147  0.000  0.000  0.529  0.000  0.380  0.000  1.057
 
band  11 # energy   31.92300922 # occ.  0.00000000
 
ion      s     py     pz     px    dxy    dyz    dz2    dxz    dx2    tot
  1  0.180  0.073  0.000  0.007  0.019  0.000  0.642  0.000  0.001  0.923
 

 k-point   13 :   -0.31250000 0.43750000 0.06250000     weight = 0.09375000

band   1 # energy    0.70551224 # occ.  1.00000000
 
ion      s     py     pz     px    dxy    dyz    dz2    dxz    dx2    tot
  1  0.135  0.001  0.009  0.044  0.370  0.012  0.242  0.026  0.023  0.862
 
band   2 # energy    1.71199866 # occ.  1.00000000
 
ion      s     py     pz     px    dxy    dyz    dz2    dxz    dx2    tot
  1  0.004  0.013  0.009  0.001  0.007  0.219  0.129  0.472  0.084  0.937
 
band   3 # energy    2.37283969 # occ.  1.00000000
 
ion      s     py     pz     px    dxy    dyz    dz2    dxz    dx2    tot
  1  0.028  0.031  0.001  0.068  0.031  0.278  0.030  0.013  0.420  0.900
 
band   4 # energy    3.39164024 # occ.  1.00000000
 
ion      s     py     pz     px    dxy    dyz    dz2    dxz    dx2    tot
  1  0.001  0.007  0.002  0.002  0.395  0.003  0.463  0.098  0.000  0.972
 
band   5 # energy    4.15296267 # occ.  1.00000000
 
ion      s     py     pz     px    dxy    dyz    dz2    dxz    dx2    tot
  1  0.020  0.004  0.001  0.013  0.012  0.339  0.043  0.242  0.303  0.977
 
band   6 # energy    6.13614618 # occ. -0.00007202
 
ion      s     py     pz     px    dxy    dyz    dz2    dxz    dx2    tot
  1  0.129  0.061  0.011  0.152  0.098  0.124  0.033  0.102  0.155  0.866
 
band   7 # energy   15.70667375 # occ.  0.00000000
 
ion      s     py     pz     px    dxy    dyz    dz2    dxz    dx2    tot
  1  0.173  0.211  0.017  0.043  0.254  0.005  0.093  0.005  0.022  0.823
 
band   8 # energy   19.62719251 # occ.  0.00000000
 
ion      s     py     pz     px    dxy    dyz    dz2    dxz    dx2    tot
  1  0.120  0.010  0.244  0.073  0.000  0.040  0.067  0.200  0.010  0.763
 
band   9 # energy   26.25185493 # occ.  0.00000000
 
ion      s     py     pz     px    dxy    dyz    dz2    dxz    dx2    tot
  1  0.000  0.068  0.309  0.058  0.021  0.022  0.054  0.022  0.015  0.567
 
band  10 # energy   29.02728120 # occ.  0.00000000
 
ion      s     py     pz     px    dxy    dyz    dz2    dxz    dx2    tot
  1  0.038  0.109  0.007  0.005  0.002  0.205  0.244  0.199  0.020  0.829
 
band  11 # energy   32.61508271 # occ.  0.00000000
 