    2    2    5    1
  0.1080000E+03  0.6000000E-09  0.6000000E-09  0.6000000E-09  0.5000000E-15
  1.000000000000000E-004
  CAR 
 unknown system                          
   10    1    6
 
  0.0000000E+00  0.0000000E+00  0.0000000E+00  0.1000000E+01
   1      -28.628280
   2      -13.391431
   3      -11.072624
   4      -11.072624
   5       -8.418577
   6       -1.395858
