       N       E                     dE             d eps       ncg     rms          rms(c)
DAV:   1    -0.148395911392E+02   -0.14840E+02   -0.36263E-08     6   0.245E-03    0.163E-04
DAV:   2    -0.148395911403E+02   -0.11230E-08   -0.80098E-09     6   0.102E-03
   1 F= -.14839591E+02 E0= -.14839784E+02  d E =-.148396E+02
