<?xml version="1.0" encoding="ISO-8859-1"?>
<modeling>
 <generator>
  <i name="program" type="string">vasp </i>
  <i name="version" type="string">5.2.12  </i>
  <i name="subversion" type="string">11Nov11 complex                                                      parallel </i>
  <i name="platform" type="string">LinuxIFC </i>
  <i name="date" type="string">2012 08 27 </i>
  <i name="time" type="string">11:18:49 </i>
 </generator>
 <incar>
  <i type="string" name="PREC">normal</i>
  <i type="int" name="IBRION">     2</i>
  <i type="int" name="NSW">     5</i>
  <i name="ENCUT">    350.00000000</i>
  <i type="int" name="NBANDS">     6</i>
  <i type="int" name="ISMEAR">     1</i>
  <i name="SIGMA">      0.01000000</i>
 </incar>
 <kpoints>
  <generation param="Monkhorst-Pack">
   <v type="int" name="divisions">       1        1        1 </v>
   <v name="usershift">      0.00000000       0.00000000       0.00000000 </v>
   <v name="genvec1">      1.00000000       0.00000000       0.00000000 </v>
   <v name="genvec2">      0.00000000       1.00000000       0.00000000 </v>
   <v name="genvec3">      0.00000000       0.00000000       1.00000000 </v>
   <v name="shift">      0.00000000       0.00000000       0.00000000 </v>
  </generation>
  <varray name="kpointlist" >
   <v>       0.00000000       0.00000000       0.00000000 </v>
  </varray>
  <varray name="weights" >
   <v>       1.00000000 </v>
  </varray>
 </kpoints>
 <parameters>
  <separator name="general" >
   <i type="string" name="SYSTEM">unknown system</i>
   <i type="logical" name="LCOMPAT"> F  </i>
  </separator>
  <separator name="electronic" >
   <i type="string" name="PREC">normal</i>
   <i name="ENMAX">    350.00000000</i>
   <i name="ENAUG">    644.87300000</i>
   <i name="EDIFF">      0.00010000</i>
   <i type="int" name="IALGO">    38</i>
   <i type="int" name="IWAVPR">    11</i>
   <i type="int" name="NBANDS">     6</i>
   <i name="NELECT">     10.00000000</i>
   <i type="int" name="TURBO">     0</i>
   <i type="int" name="IRESTART">     0</i>
   <i type="int" name="NREBOOT">     0</i>
   <i type="int" name="NMIN">     0</i>
   <i name="EREF">      0.00000000</i>
   <separator name="electronic smearing" >
    <i type="int" name="ISMEAR">     1</i>
    <i name="SIGMA">      0.01000000</i>
    <i name="KSPACING">      0.50000000</i>
    <i type="logical" name="KGAMMA"> T  </i>
   </separator>
   <separator name="electronic projectors" >
    <i type="logical" name="LREAL"> F  </i>
    <v name="ROPT">      0.00000000      0.00000000</v>
    <i type="int" name="LMAXPAW">  -100</i>
    <i type="int" name="LMAXMIX">     2</i>
    <i type="logical" name="NLSPLINE"> F  </i>
   </separator>
   <separator name="electronic startup" >
    <i type="int" name="ISTART">     1</i>
    <i type="int" name="ICHARG">     0</i>
    <i type="int" name="INIWAV">     1</i>
   </separator>
   <separator name="electronic spin" >
    <i type="int" name="ISPIN">     1</i>
    <i type="logical" name="LNONCOLLINEAR"> F  </i>
    <v name="MAGMOM">      1.00000000      1.00000000</v>
    <i name="NUPDOWN">     -1.00000000</i>
    <i type="logical" name="LSORBIT"> F  </i>
    <v name="SAXIS">      0.00000000      0.00000000      1.00000000</v>
    <i type="logical" name="LSPIRAL"> F  </i>
    <v name="QSPIRAL">      0.00000000      0.00000000      0.00000000</v>
    <i type="logical" name="LZEROZ"> F  </i>
   </separator>
   <separator name="electronic exchange-correlation" >
    <i type="logical" name="LASPH"> F  </i>
    <i type="logical" name="LMETAGGA"> F  </i>
   </separator>
   <separator name="electronic convergence" >
    <i type="int" name="NELM">    60</i>
    <i type="int" name="NELMDL">     0</i>
    <i type="int" name="NELMIN">     2</i>
    <i name="ENINI">    350.00000000</i>
    <separator name="electronic convergence detail" >
     <i type="logical" name="LDIAG"> T  </i>
     <i type="logical" name="LSUBROT"> T  </i>
     <i name="WEIMIN">      0.00100000</i>
     <i name="EBREAK">      0.00000417</i>
     <i name="DEPER">      0.30000000</i>
     <i type="int" name="NRMM">     4</i>
     <i name="TIME">      0.40000000</i>
    </separator>
   </separator>
   <separator name="electronic mixer" >
    <i name="AMIX">      0.40000000</i>
    <i name="BMIX">      1.00000000</i>
    <i name="AMIN">      0.10000000</i>
    <i name="AMIX_MAG">      1.60000000</i>
    <i name="BMIX_MAG">      1.00000000</i>
    <separator name="electronic mixer details" >
     <i type="int" name="IMIX">     4</i>
     <i type="int" name="MAXMIX">   -45</i>
     <i name="WC">    100.00000000</i>
     <i type="int" name="INIMIX">     1</i>
     <i type="int" name="MIXPRE">     1</i>
     <i type="int" name="MREMOVE">     5</i>
    </separator>
   </separator>
   <separator name="electronic dipolcorrection" >
    <i type="logical" name="LDIPOL"> F  </i>
    <i type="logical" name="LMONO"> F  </i>
    <i type="int" name="IDIPOL">     0</i>
    <i name="EPSILON">      1.00000000</i>
    <v name="DIPOL">   -100.00000000   -100.00000000   -100.00000000</v>
    <i name="EFIELD">      0.00000000</i>
   </separator>
  </separator>
  <separator name="grids" >
   <i type="int" name="NGX">    28</i>
   <i type="int" name="NGY">    28</i>
   <i type="int" name="NGZ">    28</i>
   <i type="int" name="NGXF">    56</i>
   <i type="int" name="NGYF">    56</i>
   <i type="int" name="NGZF">    56</i>
   <i type="logical" name="ADDGRID"> F  </i>
  </separator>
  <separator name="ionic" >
   <i type="int" name="NSW">     5</i>
   <i type="int" name="IBRION">     2</i>
   <i type="int" name="ISIF">     2</i>
   <i name="PSTRESS">      0.00000000</i>
   <i name="EDIFFG">      0.00100000</i>
   <i type="int" name="NFREE">     1</i>
   <i name="POTIM">      0.50000000</i>
   <i name="SMASS">     -3.00000000</i>
   <i name="SCALEE">      1.00000000</i>
  </separator>
  <separator name="ionic md" >
   <i name="TEBEG">      0.00010000</i>
   <i name="TEEND">      0.00010000</i>
   <i type="int" name="NBLOCK">     1</i>
   <i type="int" name="KBLOCK">     5</i>
   <i type="int" name="NPACO">   256</i>
   <i name="APACO">     16.00000000</i>
  </separator>
  <separator name="symmetry" >
   <i type="int" name="ISYM">     2</i>
   <i name="SYMPREC">      0.00001000</i>
  </separator>
  <separator name="dos" >
   <i type="logical" name="LORBIT"> F  </i>
   <v name="RWIGS">     -1.00000000     -1.00000000</v>
   <i type="int" name="NEDOS">   301</i>
   <i name="EMIN">     10.00000000</i>
   <i name="EMAX">    -10.00000000</i>
   <i name="EFERMI">      0.00000000</i>
  </separator>
  <separator name="writing" >
   <i type="int" name="NWRITE">     2</i>
   <i type="logical" name="LWAVE"> T  </i>
   <i type="logical" name="LCHARG"> T  </i>
   <i type="logical" name="LPARD"> F  </i>
   <i type="logical" name="LVTOT"> F  </i>
   <i type="logical" name="LVHAR"> F  </i>
   <i type="logical" name="LELF"> F  </i>
   <i type="logical" name="LOPTICS"> F  </i>
   <v name="STM">      0.00000000      0.00000000      0.00000000      0.00000000      0.00000000      0.00000000      0.00000000</v>
  </separator>
  <separator name="performance" >
   <i type="int" name="NPAR">     1</i>
   <i type="int" name="NSIM">     4</i>
   <i type="int" name="NBLK">    -1</i>
   <i type="logical" name="LPLANE"> T  </i>
   <i type="logical" name="LSCALAPACK"> F  </i>
   <i type="logical" name="LSCAAWARE"> F  </i>
   <i type="logical" name="LSCALU"> F  </i>
   <i type="logical" name="LASYNC"> F  </i>
   <i type="logical" name="LORBITALREAL"> F  </i>
  </separator>
  <separator name="miscellaneous" >
   <i type="int" name="IDIOT">     3</i>
   <i type="logical" name="LMUSIC"> F  </i>
   <v name="POMASS">     12.01100000     16.00000000</v>
   <v name="DARWINR">      0.00000000      0.00000000</v>
   <v name="DARWINV">      1.00000000      1.00000000</v>
   <i type="logical" name="LCORR"> T  </i>
  </separator>
  <i type="logical" name="GGA_COMPAT"> T  </i>
  <i type="logical" name="LBERRY"> F  </i>
  <i type="int" name="ICORELEVEL">     0</i>
  <i type="logical" name="LDAU"> F  </i>
  <i type="int" name="I_CONSTRAINED_M">     0</i>
  <separator name="electronic exchange-correlation" >
   <i type="string" name="GGA">--</i>
   <i type="int" name="VOSKOWN">     0</i>
   <i type="logical" name="LHFCALC"> F  </i>
   <i type="string" name="PRECFOCK"></i>
   <i type="logical" name="LHFONE"> F  </i>
   <i type="logical" name="LRHFCALC"> F  </i>
   <i type="logical" name="LTHOMAS"> F  </i>
   <i type="logical" name="LMODELHF"> F  </i>
   <i name="ENCUT4O">     -1.00000000</i>
   <i type="int" name="EXXOEP">     0</i>
   <i type="int" name="FOURORBIT">     0</i>
   <i name="AEXX">      0.00000000</i>
   <i name="HFALPHA">      0.00000000</i>
   <i name="ALDAX">      1.00000000</i>
   <i name="AGGAX">      1.00000000</i>
   <i name="ALDAC">      1.00000000</i>
   <i name="AGGAC">      1.00000000</i>
   <i type="int" name="NKREDX">     1</i>
   <i type="int" name="NKREDY">     1</i>
   <i type="int" name="NKREDZ">     1</i>
   <i type="logical" name="SHIFTRED"> F  </i>
   <i type="logical" name="ODDONLY"> F  </i>
   <i type="logical" name="EVENONLY"> F  </i>
   <i type="int" name="LMAXFOCK">     0</i>
   <i type="int" name="NMAXFOCKAE">     0</i>
   <i type="logical" name="LFOCKAEDFT"> F  </i>
   <i name="HFSCREEN">      0.00000000</i>
   <i name="HFSCREENC">      0.00000000</i>
  </separator>
  <separator name="vdW DFT" >
   <i type="logical" name="LUSE_VDW"> F  </i>
   <i name="Zab_VDW">     -0.84910000</i>
   <i name="PARAM1">      0.12340000</i>
   <i name="PARAM2">      1.00000000</i>
   <i name="PARAM3">      0.00000000</i>
  </separator>
  <separator name="model GW" >
   <i type="int" name="MODEL_GW">     0</i>
   <i name="MODEL_EPS0">     64.80000000</i>
   <i name="MODEL_ALPHA">      1.00000000</i>
  </separator>
  <separator name="linear response parameters" >
   <i type="logical" name="LEPSILON"> F  </i>
   <i type="logical" name="LRPA"> F  </i>
   <i type="logical" name="LNABLA"> F  </i>
   <i type="logical" name="LVEL"> F  </i>
   <i type="int" name="KINTER">     0</i>
   <i name="CSHIFT">      0.10000000</i>
   <i name="OMEGAMAX">     -1.00000000</i>
  </separator>
  <separator name="orbital magnetization" >
   <i type="logical" name="NUCIND"> F  </i>
   <v name="MAGPOS">      0.00000000      0.00000000      0.00000000</v>
   <i type="logical" name="LNICSALL"> T  </i>
   <i type="logical" name="ORBITALMAG"> F  </i>
   <i type="logical" name="LMAGBLOCH"> F  </i>
   <i type="logical" name="LCHIMAG"> F  </i>
   <i type="logical" name="LGAUGE"> T  </i>
   <i type="int" name="MAGATOM">     0</i>
   <v name="MAGDIPOL">      0.00000000      0.00000000      0.00000000</v>
   <v name="AVECCONST">      0.00000000      0.00000000      0.00000000</v>
  </separator>
  <separator name="response functions" >
   <i type="logical" name="LADDER"> F  </i>
   <i type="logical" name="LHARTREE"> T  </i>
   <i type="int" name="IBSE">     0</i>
   <i type="logical" name="LTCTE"> F  </i>
   <i type="logical" name="LTETE"> F  </i>
   <i type="logical" name="LFXCEPS"> F  </i>
   <i type="logical" name="L2ORDER"> F  </i>
   <i type="logical" name="LUSEW"> F  </i>
   <i name="ENCUTGW">     -2.00000000</i>
   <i name="ENCUTGWSOFT">     -2.00000000</i>
   <i name="ENCUTLF">     -1.00000000</i>
   <i type="int" name="LMAXMP2">    -1</i>
   <i name="SCISSOR">      0.00000000</i>
   <i type="int" name="NOMEGA">     0</i>
   <i type="int" name="NOMEGAR">     0</i>
   <i type="int" name="NBANDSGW">    -1</i>
   <i type="int" name="NBANDSO">    -1</i>
   <i type="int" name="NBANDSV">    -1</i>
   <i name="OPTEMAX">      0.00000000</i>
   <i type="int" name="NELM">     1</i>
   <i type="int" name="DIM">     3</i>
   <i type="int" name="ANTIRES">     0</i>
   <i name="OMEGAMAX">    -30.00000000</i>
   <i name="OMEGATL">   -200.00000000</i>
   <i type="int" name="OMEGAGRID">     0</i>
   <i name="CSHIFT">     -0.10000000</i>
   <i type="logical" name="SELFENERGY"> F  </i>
   <i type="logical" name="LSPECTRAL"> F  </i>
   <i type="logical" name="ODDONLYGW"> F  </i>
   <i type="logical" name="EVENONLYGW"> F  </i>
   <i type="int" name="NKREDLFX">     1</i>
   <i type="int" name="NKREDLFY">     1</i>
   <i type="int" name="NKREDLFZ">     1</i>
   <i type="int" name="MAXMEM">  1800</i>
   <i type="int" name="TELESCOPE">     0</i>
  </separator>
 </parameters>
 <atominfo>
  <atoms>       2 </atoms>
  <types>       2 </types>
  <array name="atoms" >
   <dimension dim="1">ion</dimension>
   <field type="string">element</field>
   <field type="int">atomtype</field>
   <set>
    <rc><c>C </c><c>   1</c></rc>
    <rc><c>O </c><c>   2</c></rc>
   </set>
  </array>
  <array name="atomtypes" >
   <dimension dim="1">type</dimension>
   <field type="int">atomspertype</field>
   <field type="string">element</field>
   <field>mass</field>
   <field>valence</field>
   <field type="string">pseudopotential</field>
   <set>
    <rc><c>   1</c><c>C </c><c>     12.01100000</c><c>      4.00000000</c><c> PAW_PBE C 08Apr2002                    </c></rc>
    <rc><c>   1</c><c>O </c><c>     16.00000000</c><c>      6.00000000</c><c> PAW_PBE O 08Apr2002                    </c></rc>
   </set>
  </array>
 </atominfo>
 <structure name="initialpos" >
  <crystal>
   <varray name="basis" >
    <v>       6.00000000       0.00000000       0.00000000 </v>
    <v>       0.00000000       6.00000000       0.00000000 </v>
    <v>       0.00000000       0.00000000       6.00000000 </v>
   </varray>
   <i name="volume">    216.00000000 </i>
   <varray name="rec_basis" >
    <v>       0.16666667       0.00000000       0.00000000 </v>
    <v>       0.00000000       0.16666667       0.00000000 </v>
    <v>       0.00000000       0.00000000       0.16666667 </v>
   </varray>
  </crystal>
  <varray name="positions" >
   <v>       0.00465150       0.00000000       0.00000000 </v>
   <v>       0.19534850       0.00000000       0.00000000 </v>
  </varray>
 </structure>
 <calculation>
  <scstep>
   <time name="dav">    0.04    0.04</time>
   <time name="total">    0.35    0.35</time>
   <energy>
    <i name="alphaZ">      2.01506880 </i>
    <i name="ewald">    -33.79966428 </i>
    <i name="hartreedc">   -454.96963618 </i>
    <i name="XCdc">     40.99383984 </i>
    <i name="pawpsdc">    381.12149955 </i>
    <i name="pawaedc">   -384.10561861 </i>
    <i name="eentropy">      0.00057979 </i>
    <i name="bandstr">   -145.16689051 </i>
    <i name="atom">    579.07123046 </i>
    <i name="e_fr_energy">    -14.83959114 </i>
    <i name="e_wo_entrp">    -14.84017093 </i>
    <i name="e_0_energy">    -14.83978440 </i>
   </energy>
  </scstep>
  <scstep>
   <time name="dav">    0.04    0.04</time>
   <time name="total">    0.30    0.31</time>
   <energy>
    <i name="alphaZ">      2.01506880 </i>
    <i name="ewald">    -33.79966428 </i>
    <i name="hartreedc">   -454.96944906 </i>
    <i name="XCdc">     40.99383013 </i>
    <i name="pawpsdc">    381.12111578 </i>
    <i name="pawaedc">   -384.10523150 </i>
    <i name="eentropy">      0.00057979 </i>
    <i name="bandstr">   -145.16707126 </i>
    <i name="atom">    579.07123046 </i>
    <i name="e_fr_energy">    -14.83959114 </i>
    <i name="e_wo_entrp">    -14.84017093 </i>
    <i name="e_0_energy">    -14.83978440 </i>
   </energy>
  </scstep>
  <parameters_embedded>
   <separator name="dft+d2" >
    <i type="logical" name="LVDW"> F  </i>
   </separator>
  </parameters_embedded>
  <structure>
   <crystal>
    <varray name="basis" >
     <v>       6.00000000       0.00000000       0.00000000 </v>
     <v>       0.00000000       6.00000000       0.00000000 </v>
     <v>       0.00000000       0.00000000       6.00000000 </v>
    </varray>
    <i name="volume">    216.00000000 </i>
    <varray name="rec_basis" >
     <v>       0.16666667       0.00000000       0.00000000 </v>
     <v>       0.00000000       0.16666667       0.00000000 </v>
     <v>       0.00000000       0.00000000       0.16666667 </v>
    </varray>
   </crystal>
   <varray name="positions" >
    <v>       0.00465150       0.00000000       0.00000000 </v>
    <v>       0.19534850       0.00000000       0.00000000 </v>
   </varray>
  </structure>
  <varray name="forces" >
   <v>       0.00580652       0.00000000       0.00000000 </v>
   <v>      -0.00580652       0.00000000       0.00000000 </v>
  </varray>
  <varray name="stress" >
   <v>     -21.26710785       0.00000000       0.00000000 </v>
   <v>       0.00000000     -17.65868541       0.00000000 </v>
   <v>       0.00000000       0.00000000     -17.65868541 </v>
  </varray>
  <energy>
   <i name="e_fr_energy">    -14.83959114 </i>
   <i name="e_wo_entrp">    -14.83978440 </i>
   <i name="e_0_energy">      0.00057979 </i>
  </energy>
  <time name="totalsc">    1.48    1.54</time>
  <eigenvalues>
   <array>
    <dimension dim="1">band</dimension>
    <dimension dim="2">kpoint</dimension>
    <dimension dim="3">spin</dimension>
    <field>eigene</field>
    <field>occ</field>
    <set>
     <set comment="spin 1">
      <set comment="kpoint 1">
       <r>  -28.6283    1.0000 </r>
       <r>  -13.3914    1.0000 </r>
       <r>  -11.0726    1.0000 </r>
       <r>  -11.0726    1.0000 </r>
       <r>   -8.4186    1.0000 </r>
       <r>   -1.3959    0.0000 </r>
      </set>
     </set>
    </set>
   </array>
  </eigenvalues>
  <separator name="orbital magnetization" >
   <v name="MAGDIPOLOUT">      0.00000000      0.00000000      0.00000000</v>
  </separator>
  <dos>
   <i name="efermi">     -8.41015815 </i>
   <total>
    <array>
     <dimension dim="1">gridpoints</dimension>
     <dimension dim="2">spin</dimension>
     <field>energy</field>
     <field>total</field>
     <field>integrated</field>
     <set>
      <set comment="spin 1">
       <r>   -29.9899     0.0000     0.0000 </r>
       <r>   -29.8900     0.0000     0.0000 </r>
       <r>   -29.7902     0.0000     0.0000 </r>
       <r>   -29.6903     0.0000     0.0000 </r>
       <r>   -29.5905     0.0000     0.0000 </r>
       <r>   -29.4906     0.0000     0.0000 </r>
       <r>   -29.3908     0.0000     0.0000 </r>
       <r>   -29.2909     0.0000     0.0000 </r>
       <r>   -29.1911     0.0000     0.0000 </r>
       <r>   -29.0912     0.0000     0.0000 </r>
       <r>   -28.9914     0.0000     0.0000 </r>
       <r>   -28.8915     0.0000     0.0000 </r>
       <r>   -28.7917     0.0000     0.0000 </r>
       <r>   -28.6918     0.0000     0.0000 </r>
       <r>   -28.5920    20.0296     2.0000 </r>
       <r>   -28.4921     0.0000     2.0000 </r>
       <r>   -28.3923     0.0000     2.0000 </r>
       <r>   -28.2924     0.0000     2.0000 </r>
       <r>   -28.1926     0.0000     2.0000 </r>
       <r>   -28.0927     0.0000     2.0000 </r>
       <r>   -27.9929     0.0000     2.0000 </r>
       <r>   -27.8930     0.0000     2.0000 </r>
       <r>   -27.7932     0.0000     2.0000 </r>
       <r>   -27.6933     0.0000     2.0000 </r>
       <r>   -27.5934     0.0000     2.0000 </r>
       <r>   -27.4936     0.0000     2.0000 </r>
       <r>   -27.3937     0.0000     2.0000 </r>
       <r>   -27.2939     0.0000     2.0000 </r>
       <r>   -27.1940     0.0000     2.0000 </r>
       <r>   -27.0942     0.0000     2.0000 </r>
       <r>   -26.9943     0.0000     2.0000 </r>
       <r>   -26.8945     0.0000     2.0000 </r>
       <r>   -26.7946     0.0000     2.0000 </r>
       <r>   -26.6948     0.0000     2.0000 </r>
       <r>   -26.5949     0.0000     2.0000 </r>
       <r>   -26.4951     0.0000     2.0000 </r>
       <r>   -26.3952     0.0000     2.0000 </r>
       <r>   -26.2954     0.0000     2.0000 </r>
       <r>   -26.1955     0.0000     2.0000 </r>
       <r>   -26.0957     0.0000     2.0000 </r>
       <r>   -25.9958     0.0000     2.0000 </r>
       <r>   -25.8960     0.0000     2.0000 </r>
       <r>   -25.7961     0.0000     2.0000 </r>
       <r>   -25.6963     0.0000     2.0000 </r>
       <r>   -25.5964     0.0000     2.0000 </r>
       <r>   -25.4966     0.0000     2.0000 </r>
       <r>   -25.3967     0.0000     2.0000 </r>
       <r>   -25.2968     0.0000     2.0000 </r>
       <r>   -25.1970     0.0000     2.0000 </r>
       <r>   -25.0971     0.0000     2.0000 </r>
       <r>   -24.9973     0.0000     2.0000 </r>
       <r>   -24.8974     0.0000     2.0000 </r>
       <r>   -24.7976     0.0000     2.0000 </r>
       <r>   -24.6977     0.0000     2.0000 </r>
       <r>   -24.5979     0.0000     2.0000 </r>
       <r>   -24.4980     0.0000     2.0000 </r>
       <r>   -24.3982     0.0000     2.0000 </r>
       <r>   -24.2983     0.0000     2.0000 </r>
       <r>   -24.1985     0.0000     2.0000 </r>
       <r>   -24.0986     0.0000     2.0000 </r>
       <r>   -23.9988     0.0000     2.0000 </r>
       <r>   -23.8989     0.0000     2.0000 </r>
       <r>   -23.7991     0.0000     2.0000 </r>
       <r>   -23.6992     0.0000     2.0000 </r>
       <r>   -23.5994     0.0000     2.0000 </r>
       <r>   -23.4995     0.0000     2.0000 </r>
       <r>   -23.3997     0.0000     2.0000 </r>
       <r>   -23.2998     0.0000     2.0000 </r>
       <r>   -23.2000     0.0000     2.0000 </r>
       <r>   -23.1001     0.0000     2.0000 </r>
       <r>   -23.0002     0.0000     2.0000 </r>
       <r>   -22.9004     0.0000     2.0000 </r>
       <r>   -22.8005     0.0000     2.0000 </r>
       <r>   -22.7007     0.0000     2.0000 </r>
       <r>   -22.6008     0.0000     2.0000 </r>
       <r>   -22.5010     0.0000     2.0000 </r>
       <r>   -22.4011     0.0000     2.0000 </r>
       <r>   -22.3013     0.0000     2.0000 </r>
       <r>   -22.2014     0.0000     2.0000 </r>
       <r>   -22.1016     0.0000     2.0000 </r>
       <r>   -22.0017     0.0000     2.0000 </r>
       <r>   -21.9019     0.0000     2.0000 </r>
       <r>   -21.8020     0.0000     2.0000 </r>
       <r>   -21.7022     0.0000     2.0000 </r>
       <r>   -21.6023     0.0000     2.0000 </r>
       <r>   -21.5025     0.0000     2.0000 </r>
       <r>   -21.4026     0.0000     2.0000 </r>
       <r>   -21.3028     0.0000     2.0000 </r>
       <r>   -21.2029     0.0000     2.0000 </r>
       <r>   -21.1031     0.0000     2.0000 </r>
       <r>   -21.0032     0.0000     2.0000 </r>
       <r>   -20.9033     0.0000     2.0000 </r>
       <r>   -20.8035     0.0000     2.0000 </r>
       <r>   -20.7036     0.0000     2.0000 </r>
       <r>   -20.6038     0.0000     2.0000 </r>
       <r>   -20.5039     0.0000     2.0000 </r>
       <r>   -20.4041     0.0000     2.0000 </r>
       <r>   -20.3042     0.0000     2.0000 </r>
       <r>   -20.2044     0.0000     2.0000 </r>
       <r>   -20.1045     0.0000     2.0000 </r>
       <r>   -20.0047     0.0000     2.0000 </r>
       <r>   -19.9048     0.0000     2.0000 </r>
       <r>   -19.8050     0.0000     2.0000 </r>
       <r>   -19.7051     0.0000     2.0000 </r>
       <r>   -19.6053     0.0000     2.0000 </r>
       <r>   -19.5054     0.0000     2.0000 </r>
       <r>   -19.4056     0.0000     2.0000 </r>
       <r>   -19.3057     0.0000     2.0000 </r>
       <r>   -19.2059     0.0000     2.0000 </r>
       <r>   -19.1060     0.0000     2.0000 </r>
       <r>   -19.0062     0.0000     2.0000 </r>
       <r>   -18.9063     0.0000     2.0000 </r>
       <r>   -18.8065     0.0000     2.0000 </r>
       <r>   -18.7066     0.0000     2.0000 </r>
       <r>   -18.6067     0.0000     2.0000 </r>
       <r>   -18.5069     0.0000     2.0000 </r>
       <r>   -18.4070     0.0000     2.0000 </r>
       <r>   -18.3072     0.0000     2.0000 </r>
       <r>   -18.2073     0.0000     2.0000 </r>
       <r>   -18.1075     0.0000     2.0000 </r>
       <r>   -18.0076     0.0000     2.0000 </r>
       <r>   -17.9078     0.0000     2.0000 </r>
       <r>   -17.8079     0.0000     2.0000 </r>
       <r>   -17.7081     0.0000     2.0000 </r>
       <r>   -17.6082     0.0000     2.0000 </r>
       <r>   -17.5084     0.0000     2.0000 </r>
       <r>   -17.4085     0.0000     2.0000 </r>
       <r>   -17.3087     0.0000     2.0000 </r>
       <r>   -17.2088     0.0000     2.0000 </r>
       <r>   -17.1090     0.0000     2.0000 </r>
       <r>   -17.0091     0.0000     2.0000 </r>
       <r>   -16.9093     0.0000     2.0000 </r>
       <r>   -16.8094     0.0000     2.0000 </r>
       <r>   -16.7096     0.0000     2.0000 </r>
       <r>   -16.6097     0.0000     2.0000 </r>
       <r>   -16.5099     0.0000     2.0000 </r>
       <r>   -16.4100     0.0000     2.0000 </r>
       <r>   -16.3101     0.0000     2.0000 </r>
       <r>   -16.2103     0.0000     2.0000 </r>
       <r>   -16.1104     0.0000     2.0000 </r>
       <r>   -16.0106     0.0000     2.0000 </r>
       <r>   -15.9107     0.0000     2.0000 </r>
       <r>   -15.8109     0.0000     2.0000 </r>
       <r>   -15.7110     0.0000     2.0000 </r>
       <r>   -15.6112     0.0000     2.0000 </r>
       <r>   -15.5113     0.0000     2.0000 </r>
       <r>   -15.4115     0.0000     2.0000 </r>
       <r>   -15.3116     0.0000     2.0000 </r>
       <r>   -15.2118     0.0000     2.0000 </r>
       <r>   -15.1119     0.0000     2.0000 </r>
       <r>   -15.0121     0.0000     2.0000 </r>
       <r>   -14.9122     0.0000     2.0000 </r>
       <r>   -14.8124     0.0000     2.0000 </r>
       <r>   -14.7125     0.0000     2.0000 </r>
       <r>   -14.6127     0.0000     2.0000 </r>
       <r>   -14.5128     0.0000     2.0000 </r>
       <r>   -14.4130     0.0000     2.0000 </r>
       <r>   -14.3131     0.0000     2.0000 </r>
       <r>   -14.2133     0.0000     2.0000 </r>
       <r>   -14.1134     0.0000     2.0000 </r>
       <r>   -14.0135     0.0000     2.0000 </r>
       <r>   -13.9137     0.0000     2.0000 </r>
       <r>   -13.8138     0.0000     2.0000 </r>
       <r>   -13.7140     0.0000     2.0000 </r>
       <r>   -13.6141     0.0000     2.0000 </r>
       <r>   -13.5143     0.0000     2.0000 </r>
       <r>   -13.4144    -0.0540     1.9946 </r>
       <r>   -13.3146    20.0836     4.0000 </r>
       <r>   -13.2147     0.0000     4.0000 </r>
       <r>   -13.1149     0.0000     4.0000 </r>
       <r>   -13.0150     0.0000     4.0000 </r>
       <r>   -12.9152     0.0000     4.0000 </r>
       <r>   -12.8153     0.0000     4.0000 </r>
       <r>   -12.7155     0.0000     4.0000 </r>
       <r>   -12.6156     0.0000     4.0000 </r>
       <r>   -12.5158     0.0000     4.0000 </r>
       <r>   -12.4159     0.0000     4.0000 </r>
       <r>   -12.3161     0.0000     4.0000 </r>
       <r>   -12.2162     0.0000     4.0000 </r>
       <r>   -12.1164     0.0000     4.0000 </r>
       <r>   -12.0165     0.0000     4.0000 </r>
       <r>   -11.9167     0.0000     4.0000 </r>
       <r>   -11.8168     0.0000     4.0000 </r>
       <r>   -11.7169     0.0000     4.0000 </r>
       <r>   -11.6171     0.0000     4.0000 </r>
       <r>   -11.5172     0.0000     4.0000 </r>
       <r>   -11.4174     0.0000     4.0000 </r>
       <r>   -11.3175     0.0000     4.0000 </r>
       <r>   -11.2177     0.0000     4.0000 </r>
       <r>   -11.1178     0.0000     4.0000 </r>
       <r>   -11.0180    40.0592     8.0000 </r>
       <r>   -10.9181     0.0000     8.0000 </r>
       <r>   -10.8183     0.0000     8.0000 </r>
       <r>   -10.7184     0.0000     8.0000 </r>
       <r>   -10.6186     0.0000     8.0000 </r>
       <r>   -10.5187     0.0000     8.0000 </r>
       <r>   -10.4189     0.0000     8.0000 </r>
       <r>   -10.3190     0.0000     8.0000 </r>
       <r>   -10.2192     0.0000     8.0000 </r>
       <r>   -10.1193     0.0000     8.0000 </r>
       <r>   -10.0195     0.0000     8.0000 </r>
       <r>    -9.9196     0.0000     8.0000 </r>
       <r>    -9.8198     0.0000     8.0000 </r>
       <r>    -9.7199     0.0000     8.0000 </r>
       <r>    -9.6200     0.0000     8.0000 </r>
       <r>    -9.5202     0.0000     8.0000 </r>
       <r>    -9.4203     0.0000     8.0000 </r>
       <r>    -9.3205     0.0000     8.0000 </r>
       <r>    -9.2206     0.0000     8.0000 </r>
       <r>    -9.1208     0.0000     8.0000 </r>
       <r>    -9.0209     0.0000     8.0000 </r>
       <r>    -8.9211     0.0000     8.0000 </r>
       <r>    -8.8212     0.0000     8.0000 </r>
       <r>    -8.7214     0.0000     8.0000 </r>
       <r>    -8.6215     0.0000     8.0000 </r>
       <r>    -8.5217     0.0000     8.0000 </r>
       <r>    -8.4218     4.8205     8.4813 </r>
       <r>    -8.3220     0.0000    10.0000 </r>
       <r>    -8.2221     0.0000    10.0000 </r>
       <r>    -8.1223     0.0000    10.0000 </r>
       <r>    -8.0224     0.0000    10.0000 </r>
       <r>    -7.9226     0.0000    10.0000 </r>
       <r>    -7.8227     0.0000    10.0000 </r>
       <r>    -7.7229     0.0000    10.0000 </r>
       <r>    -7.6230     0.0000    10.0000 </r>
       <r>    -7.5232     0.0000    10.0000 </r>
       <r>    -7.4233     0.0000    10.0000 </r>
       <r>    -7.3234     0.0000    10.0000 </r>
       <r>    -7.2236     0.0000    10.0000 </r>
       <r>    -7.1237     0.0000    10.0000 </r>
       <r>    -7.0239     0.0000    10.0000 </r>
       <r>    -6.9240     0.0000    10.0000 </r>
       <r>    -6.8242     0.0000    10.0000 </r>
       <r>    -6.7243     0.0000    10.0000 </r>
       <r>    -6.6245     0.0000    10.0000 </r>
       <r>    -6.5246     0.0000    10.0000 </r>
       <r>    -6.4248     0.0000    10.0000 </r>
       <r>    -6.3249     0.0000    10.0000 </r>
       <r>    -6.2251     0.0000    10.0000 </r>
       <r>    -6.1252     0.0000    10.0000 </r>
       <r>    -6.0254     0.0000    10.0000 </r>
       <r>    -5.9255     0.0000    10.0000 </r>
       <r>    -5.8257     0.0000    10.0000 </r>
       <r>    -5.7258     0.0000    10.0000 </r>
       <r>    -5.6260     0.0000    10.0000 </r>
       <r>    -5.5261     0.0000    10.0000 </r>
       <r>    -5.4263     0.0000    10.0000 </r>
       <r>    -5.3264     0.0000    10.0000 </r>
       <r>    -5.2266     0.0000    10.0000 </r>
       <r>    -5.1267     0.0000    10.0000 </r>
       <r>    -5.0268     0.0000    10.0000 </r>
       <r>    -4.9270     0.0000    10.0000 </r>
       <r>    -4.8271     0.0000    10.0000 </r>
       <r>    -4.7273     0.0000    10.0000 </r>
       <r>    -4.6274     0.0000    10.0000 </r>
       <r>    -4.5276     0.0000    10.0000 </r>
       <r>    -4.4277     0.0000    10.0000 </r>
       <r>    -4.3279     0.0000    10.0000 </r>
       <r>    -4.2280     0.0000    10.0000 </r>
       <r>    -4.1282     0.0000    10.0000 </r>
       <r>    -4.0283     0.0000    10.0000 </r>
       <r>    -3.9285     0.0000    10.0000 </r>
       <r>    -3.8286     0.0000    10.0000 </r>
       <r>    -3.7288     0.0000    10.0000 </r>
       <r>    -3.6289     0.0000    10.0000 </r>
       <r>    -3.5291     0.0000    10.0000 </r>
       <r>    -3.4292     0.0000    10.0000 </r>
       <r>    -3.3294     0.0000    10.0000 </r>
       <r>    -3.2295     0.0000    10.0000 </r>
       <r>    -3.1297     0.0000    10.0000 </r>
       <r>    -3.0298     0.0000    10.0000 </r>
       <r>    -2.9300     0.0000    10.0000 </r>
       <r>    -2.8301     0.0000    10.0000 </r>
       <r>    -2.7302     0.0000    10.0000 </r>
       <r>    -2.6304     0.0000    10.0000 </r>
       <r>    -2.5305     0.0000    10.0000 </r>
       <r>    -2.4307     0.0000    10.0000 </r>
       <r>    -2.3308     0.0000    10.0000 </r>
       <r>    -2.2310     0.0000    10.0000 </r>
       <r>    -2.1311     0.0000    10.0000 </r>
       <r>    -2.0313     0.0000    10.0000 </r>
       <r>    -1.9314     0.0000    10.0000 </r>
       <r>    -1.8316     0.0000    10.0000 </r>
       <r>    -1.7317     0.0000    10.0000 </r>
       <r>    -1.6319     0.0000    10.0000 </r>
       <r>    -1.5320     0.0000    10.0000 </r>
       <r>    -1.4322     0.0000    10.0000 </r>
       <r>    -1.3323    20.0296    12.0000 </r>
       <r>    -1.2325     0.0000    12.0000 </r>
       <r>    -1.1326     0.0000    12.0000 </r>
       <r>    -1.0328     0.0000    12.0000 </r>
       <r>    -0.9329     0.0000    12.0000 </r>
       <r>    -0.8331     0.0000    12.0000 </r>
       <r>    -0.7332     0.0000    12.0000 </r>
       <r>    -0.6334     0.0000    12.0000 </r>
       <r>    -0.5335     0.0000    12.0000 </r>
       <r>    -0.4336     0.0000    12.0000 </r>
       <r>    -0.3338     0.0000    12.0000 </r>
       <r>    -0.2339     0.0000    12.0000 </r>
       <r>    -0.1341     0.0000    12.0000 </r>
       <r>    -0.0342     0.0000    12.0000 </r>
      </set>
     </set>
    </array>
   </total>
  </dos>
 </calculation>
 <structure name="finalpos" >
  <crystal>
   <varray name="basis" >
    <v>       6.00000000       0.00000000       0.00000000 </v>
    <v>       0.00000000       6.00000000       0.00000000 </v>
    <v>       0.00000000       0.00000000       6.00000000 </v>
   </varray>
   <i name="volume">    216.00000000 </i>
   <varray name="rec_basis" >
    <v>       0.16666667       0.00000000       0.00000000 </v>
    <v>       0.00000000       0.16666667       0.00000000 </v>
    <v>       0.00000000       0.00000000       0.16666667 </v>
   </varray>
  </crystal>
  <varray name="positions" >
   <v>       0.00465150       0.00000000       0.00000000 </v>
   <v>       0.19534850       0.00000000       0.00000000 </v>
  </varray>
 </structure>
</modeling>
