unknown system                          
   1.00000000000000     
     6.000000    0.000000    0.000000
     0.000000    6.000000    0.000000
     0.000000    0.000000    6.000000
   C    O 
     1     1
Direct
  0.000000  0.000000  0.000000
  0.200000  0.000000  0.000000
 
   56   56   56
  254.80      270.80      364.49      483.67      593.35      699.33      834.88      1016.8      1220.4      1410.8    
  1571.1      1694.3      1744.7      1656.9      1396.0      1015.8      637.41      361.24      201.21      112.50    
  63.438      35.992      21.431      13.480      7.6952      3.6236      2.2543      2.3342      1.6775     0.41699    
 0.14810     0.79809     0.86812     0.21140     0.14000     0.90547      1.3214      1.0886      1.4143      2.8425    
  4.4182      5.7881      8.3957      13.647      21.567      32.565      49.233      75.392      115.19      173.99    
  255.53      355.26      445.94      478.89      427.27      326.09      260.43      274.14      358.85      467.28    
  568.17      667.41      794.78      967.66      1165.6      1354.6      1514.3      1632.3      1673.1      1578.5    
  1321.7      957.98      601.38      343.00      192.51      108.27      61.469      35.101      20.952      13.148    
  7.5215      3.5970      2.2431      2.2681      1.6280     0.43374     0.16465     0.76111     0.83129     0.22635    
 0.15969     0.87536      1.2783      1.0847      1.4160      2.7925      4.3373      5.7193      8.2917      13.408    
  21.146      31.918      48.156      73.472      111.80      168.22      246.26      341.30      428.26      462.15    
  417.53      325.97      271.27      279.34      341.28      422.26      500.26      581.67      687.09      834.13    
  1012.3      1191.5      1344.0      1446.7      1465.2      1358.6      1119.6      804.13      506.84      295.07    
  169.01      96.752      56.020      32.568      19.569      12.201      7.0249      3.5079      2.2046      2.0895    
  1.4940     0.47570     0.20867     0.66523     0.73447     0.26533     0.21271     0.79755      1.1637      1.0712    
  1.4165      2.6544      4.1109      5.5146      7.9811      12.717      19.932      30.044      45.078      68.068    
  102.38      152.31      220.90      303.55      380.53      416.24      389.09      321.96      273.32      275.23    
  310.38      358.55      408.20      466.01      542.97      652.93      795.31      947.05      1077.4      1156.0    
  1152.7      1046.0      845.93      603.55      386.22      233.01      137.19      80.893      48.258      28.778    
  17.439      10.777      6.2767      3.3375      2.1279      1.8462      1.3111     0.52156     0.26466     0.54592    
 0.61047     0.31308     0.28236     0.70086      1.0129      1.0425      1.4039      2.4569      3.7790      5.1814    
  7.4731      11.648      18.063      27.152      40.417      60.128      88.848      129.81      185.42      251.88    
  315.25      351.40      344.00      305.85      254.61      252.36      266.04      287.14      312.01      346.39    
  396.82      469.04      566.32      674.74      768.36      819.04      804.23      716.46      572.63      411.36    
  272.13      171.06      104.37      64.028      39.577      24.252      14.815      9.0824      5.3847      3.0773    
  2.0040      1.5896      1.1169     0.54658     0.31245     0.43796     0.49282     0.35108     0.34619     0.61159    
 0.86155     0.99218      1.3624      2.2282      3.3874      4.7359      6.7936      10.317      15.758      23.567    
  34.769      50.869      73.588      105.04      146.85      196.73      245.53      278.89      285.87      271.37    
  213.89      210.35      212.08      217.27      226.10      242.59      271.90      315.87      372.88      436.53    
  490.96      517.14      501.48      443.05      355.96      262.81      181.30      118.47      75.806      48.638    
  31.122      19.522      12.010      7.3436      4.4672      2.7422      1.8318      1.3521     0.93521     0.53459    
 0.33564     0.35875     0.40038     0.36529     0.38418     0.54003     0.73081     0.91681      1.2802      1.9846    
  2.9722      4.2072      5.9921      8.8572      13.270      19.681      28.771      41.431      58.645      81.557    
  111.04      145.92      181.02      208.27      221.15      220.30      161.77      158.94      156.83      156.00    
  157.51      164.07      178.94      203.34      234.73      267.18      293.09      303.44      291.94      259.18    
  212.59      161.85      115.69      79.411      53.567      35.845      23.572      15.031      9.3201      5.7486    
  3.6202      2.3659      1.6199      1.1408     0.77329     0.48567     0.32909     0.30628     0.33426     0.35180    
 0.38687     0.48119     0.62406     0.82008      1.1574      1.7322      2.5559      3.6352      5.1362      7.4030    
  10.843      15.878      22.980      32.638      45.302      61.421      81.281      104.21      127.59      147.16    
  159.22      163.15      112.99      111.33      109.29      107.67      107.37      109.87      116.77      128.62    
  144.01      159.67      171.25      174.58      167.16      149.38      124.59      97.660      72.924      52.698    
  37.241      25.717      17.202      11.089      6.9698      4.4064      2.8953      1.9855      1.3831     0.94780    
 0.62916     0.41436     0.29995     0.26922     0.28582     0.31701     0.35823     0.42548     0.53553     0.71300    
  1.0075      1.4766      2.1528      3.0620      4.2947      6.0570      8.6552      12.449      17.790      24.953    
  34.076      45.200      58.249      72.752      87.408      100.10      108.79      112.76      75.504      74.594    
  73.350      72.445      72.360      73.640      76.820      81.999      88.494      94.848      99.164      99.630    
  95.152      85.879      73.258      59.425      46.274      34.859      25.435      17.889      12.077      7.8764    
  5.0765      3.3445      2.2996      1.6261      1.1376     0.76551     0.50118     0.34018     0.26184     0.23820    
 0.24640     0.27238     0.31122     0.36843     0.45953     0.60926     0.85221      1.2289      1.7753      2.5216    
  3.5176      4.8761      6.7980      9.5539      13.414      18.554      24.988      32.580      41.091      50.138    
  59.039      66.769      72.279      75.065      49.449      48.900      48.228      47.925      48.208      49.136    
  50.701      52.786      55.090      57.104      58.178      57.643      55.024      50.279      43.894      36.691    
  29.475      22.786      16.907      12.001      8.1805      5.4492      3.6561      2.5351      1.8135      1.2985    
 0.89935     0.59606     0.39180     0.27766     0.22678     0.21023     0.21167     0.22748     0.25959     0.31232    
 0.39385     0.51866     0.71061      1.0036      1.4347      2.0336      2.8281      3.8725      5.2799      7.2269    
  9.9083      13.455      17.862      22.970      28.520      34.192      39.587      44.192      47.483      49.176    
  32.422      32.040      31.591      31.430      31.695      32.334      33.196      34.109      34.906      35.422    
  35.462      34.788      33.177      30.541      27.015      22.926      18.664      14.564      10.880      7.7972    
  5.4230      3.7488      2.6464      1.9241      1.4104      1.0060     0.68340     0.44911     0.30488     0.23193    
 0.20014     0.18576     0.18018     0.18652     0.21178     0.26140     0.33762     0.44346     0.59181     0.81120    
  1.1389      1.6054      2.2290      3.0304      4.0600      5.4140      7.2168      9.5685      12.478      15.834    
  19.433      23.038      26.395      29.222      31.237      32.273      21.499      21.226      20.831      20.568    
  20.576      20.864      21.353      21.918      22.426      22.745      22.736      22.244      21.135      19.365    
  17.037      14.378      11.653      9.0895      6.8450      5.0106      3.6158      2.6241      1.9416      1.4536    
  1.0700     0.75195     0.50224     0.33355     0.24130     0.20013     0.18017     0.16406     0.15101     0.14986    
 0.17035     0.21727     0.28858     0.37967     0.49425     0.65325     0.89100      1.2397      1.7165      2.3265    
  3.0820      4.0227      5.2172      6.7330      8.5886      10.724      13.016      15.314      17.466      19.301    
  20.642      21.368      14.172      14.012      13.699      13.391      13.204      13.194      13.358      13.643    
  13.957      14.180      14.185      13.850      13.092      11.907      10.396      8.7302      7.0887      5.5998    
  4.3281      3.2933      2.4887      1.8847      1.4320      1.0768     0.78300     0.54197     0.36259     0.25109    
 0.19703     0.17540     0.16098     0.14214     0.12342     0.11752     0.13498     0.17855     0.24330     0.32139    
 0.41087     0.52441     0.68987     0.93872      1.2900      1.7447      2.2981      2.9593      3.7593      4.7350    
  5.8994      7.2221      8.6370      10.064      11.416      12.598      13.498      14.028      9.0913      9.0433    
  8.8787      8.6675      8.4683      8.3173      8.2241      8.1703      8.1176      8.0220      7.8442      7.5503    
  7.1131      6.5244      5.8102      5.0279      4.2432      3.5051      2.8398      2.2591      1.7684      1.3649    
  1.0366     0.76803     0.54966     0.38070     0.26363     0.19577     0.16464     0.15093     0.13732     0.11746    
 0.97776E-01 0.90756E-01 0.10566     0.14379     0.19956     0.26485     0.33536     0.41761     0.53153     0.70321    
 0.95104      1.2778      1.6771      2.1475      2.6993      3.3459      4.0878      4.9036      5.7553      6.5993    
  7.3914      8.0827      8.6201      8.9603      5.8317      5.8516      5.8077      5.7180      5.5982      5.4612    
  5.3123      5.1460      4.9532      4.7325      4.4939      4.2482      3.9936      3.7169      3.4058      3.0607    
  2.6936      2.3187      1.9471      1.5892      1.2571     0.96365     0.71775     0.52200     0.37370     0.26778    
 0.19837     0.15804     0.13676     0.12309     0.10838     0.90790E-01 0.75562E-01 0.71023E-01 0.83374E-01 0.11368    
 0.15795     0.20985     0.26540     0.32803     0.41017     0.52880     0.69745     0.92131      1.1998      1.5326    
  1.9220      2.3676      2.8595      3.3770      3.8948      4.3896      4.8407      5.2270      5.5274      5.7285    
  3.9244      3.9534      3.9473      3.9134      3.8586      3.7962      3.7425      3.7066      3.6819      3.6476    
  3.5748      3.4362      3.2159      2.9194      2.5758      2.2260      1.9020      1.6130      1.3491      1.0978    
 0.85865     0.64450     0.47028     0.34207     0.25440     0.19602     0.15660     0.12919     0.10906     0.92645E-01
 0.78099E-01 0.65910E-01 0.58397E-01 0.58536E-01 0.68821E-01 0.90153E-01 0.12113     0.15897     0.20225     0.25336    
 0.31832     0.40443     0.51808     0.66452     0.84891      1.0763      1.3487      1.6609      1.9979      2.3399    
  2.6700      2.9796      3.2637      3.5125      3.7110      3.8477      2.6408      2.6516      2.6468      2.6349    
  2.6182      2.6017      2.5982      2.6200      2.6658      2.7130      2.7213      2.6489      2.4733      2.2062    
  1.8909      1.5809      1.3121      1.0896     0.89717     0.71817     0.55098     0.40697     0.29799     0.22597    
 0.18193     0.15259     0.12778     0.10369     0.81395E-01 0.63542E-01 0.51838E-01 0.46507E-01 0.46836E-01 0.51851E-01
 0.60837E-01 0.73746E-01 0.91433E-01 0.11561     0.14850     0.19218     0.24773     0.31497     0.39386     0.48721    
 0.60233     0.74857     0.93108      1.1450      1.3754      1.6044      1.8206      2.0221      2.2094      2.3768    
  2.5106      2.5984      1.6254      1.6210      1.6228      1.6335      1.6419      1.6297      1.5830      1.5001    
  1.3915      1.2755      1.1706      1.0868      1.0224     0.96701     0.90942     0.84209     0.76119     0.66519    
 0.55635     0.44296     0.33791     0.25324     0.19466     0.15968     0.13943     0.12310     0.10329     0.79413E-01
 0.56453E-01 0.40129E-01 0.32883E-01 0.33660E-01 0.39802E-01 0.48240E-01 0.56102E-01 0.62283E-01 0.69170E-01 0.82051E-01
 0.10602     0.14305     0.19123     0.24615     0.30370     0.36383     0.43305     0.52189     0.63746     0.77689    
 0.92804      1.0769      1.2148      1.3388      1.4469      1.5341      1.5932      1.6213      1.0153      1.0008    
 0.99539      1.0012      1.0066     0.99065     0.93243     0.82240     0.67072     0.50760     0.37291     0.29804    
 0.29036     0.33057     0.38449     0.42037     0.42126     0.38750     0.33140     0.26890     0.21268     0.16936    
 0.14010     0.12215     0.10990     0.96716E-01 0.78584E-01 0.56882E-01 0.37174E-01 0.24789E-01 0.21556E-01 0.25987E-01
 0.34920E-01 0.44395E-01 0.50633E-01 0.52368E-01 0.52824E-01 0.58501E-01 0.75222E-01 0.10479     0.14443     0.18848    
 0.23150     0.27209     0.31515     0.36942     0.44087     0.52754     0.62110     0.71299     0.79884     0.87700    
 0.94443     0.99508      1.0229      1.0271     0.79813     0.77567     0.74436     0.71498     0.69339     0.68206    
 0.68299     0.69788     0.72506     0.75622     0.77615     0.76752     0.71915     0.63295     0.52436     0.41509    
 0.32281     0.25469     0.20789     0.17485     0.14893     0.12709     0.10912     0.94934E-01 0.82658E-01 0.69433E-01
 0.53960E-01 0.37923E-01 0.24760E-01 0.17291E-01 0.16465E-01 0.21437E-01 0.29780E-01 0.37802E-01 0.42083E-01 0.41940E-01
 0.40580E-01 0.43459E-01 0.55098E-01 0.76759E-01 0.10609     0.13852     0.16983     0.19908     0.22972     0.26708    
 0.31390     0.36782     0.42353     0.47782     0.53236     0.59154     0.65657     0.72109     0.77260     0.79941    
 0.61050     0.59154     0.55737     0.52010     0.49087     0.48117     0.50374     0.56787     0.66969     0.78504    
 0.87355     0.89527     0.83130     0.69499     0.52545     0.36733     0.25028     0.18030     0.14526     0.12749    
 0.11392     0.99276E-01 0.83717E-01 0.68853E-01 0.55433E-01 0.43371E-01 0.32754E-01 0.24196E-01 0.18330E-01 0.15415E-01
 0.15505E-01 0.18485E-01 0.23442E-01 0.28327E-01 0.31046E-01 0.31337E-01 0.31454E-01 0.34757E-01 0.43553E-01 0.58019E-01
 0.76602E-01 0.97200E-01 0.11847     0.14079     0.16613     0.19635     0.23102     0.26700     0.30082     0.33206    
 0.36490     0.40576     0.45795     0.51692     0.57038     0.60422     0.29549     0.29163     0.28964     0.28904    
 0.28524     0.27116     0.24123     0.19520     0.13927     0.84184E-01 0.41480E-01 0.19435E-01 0.20089E-01 0.38585E-01
 0.65324E-01 0.90009E-01 0.10558     0.11013     0.10606     0.97125E-01 0.85843E-01 0.72878E-01 0.58520E-01 0.44092E-01
 0.31703E-01 0.22913E-01 0.17951E-01 0.15988E-01 0.15761E-01 0.16030E-01 0.16083E-01 0.16113E-01 0.16801E-01 0.18340E-01
 0.20214E-01 0.22186E-01 0.25107E-01 0.30194E-01 0.37636E-01 0.46457E-01 0.55881E-01 0.66439E-01 0.79674E-01 0.97082E-01
 0.11929     0.14548     0.17317     0.19895     0.22056     0.23831     0.25424     0.26962     0.28357     0.29388    
 0.29896     0.29888     0.10796     0.11322     0.13040     0.15157     0.16415     0.15238     0.10131     0.40590E-02
 -.13040     -.27416     -.38711     -.43312     -.39782     -.29664     -.16709     -.49833E-01 0.29418E-01 0.66871E-01
 0.74681E-01 0.68682E-01 0.58994E-01 0.48465E-01 0.36885E-01 0.25171E-01 0.15811E-01 0.10755E-01 0.99923E-02 0.11980E-01
 0.14695E-01 0.16307E-01 0.15800E-01 0.13603E-01 0.11369E-01 0.10703E-01 0.12185E-01 0.15675E-01 0.20970E-01 0.27560E-01
 0.34078E-01 0.38999E-01 0.42339E-01 0.46316E-01 0.54018E-01 0.67402E-01 0.86234E-01 0.10817     0.12961     0.14749    
 0.16099     0.17146     0.17962     0.18300     0.17715     0.16047     0.13748     0.11719     0.17090     0.17114    
 0.16999     0.16713     0.16341     0.16174     0.16626     0.17967     0.20048     0.22241     0.23672     0.23618    
 0.21836     0.18658     0.14828     0.11154     0.81986E-01 0.61531E-01 0.49030E-01 0.41672E-01 0.36220E-01 0.30161E-01
 0.22697E-01 0.14946E-01 0.89596E-02 0.62768E-02 0.70501E-02 0.10061E-01 0.13282E-01 0.14770E-01 0.13677E-01 0.10762E-01
 0.78295E-02 0.65658E-02 0.78536E-02 0.11835E-01 0.17972E-01 0.24808E-01 0.30251E-01 0.32899E-01 0.33414E-01 0.34486E-01
 0.39254E-01 0.49444E-01 0.64346E-01 0.81024E-01 0.95764E-01 0.10635     0.11360     0.12065     0.13006     0.14165    
 0.15296     0.16158     0.16684     0.16960     0.21218     0.20783     0.19181     0.16944     0.15096     0.15167    
 0.18829     0.27035     0.39026     0.51969     0.61741     0.64694     0.59463     0.47698     0.33187     0.19940    
 0.10445     0.50982E-01 0.28225E-01 0.21552E-01 0.20071E-01 0.18511E-01 0.15569E-01 0.11790E-01 0.83326E-02 0.63735E-02
 0.65693E-02 0.85178E-02 0.10747E-01 0.11594E-01 0.10421E-01 0.80321E-02 0.59147E-02 0.52309E-02 0.65323E-02 0.99698E-02
 0.15162E-01 0.20812E-01 0.25065E-01 0.26835E-01 0.26928E-01 0.27742E-01 0.31724E-01 0.39796E-01 0.50715E-01 0.61678E-01
 0.69976E-01 0.74864E-01 0.78286E-01 0.83745E-01 0.94252E-01 0.11105     0.13350     0.15930     0.18441     0.20361    
 0.60522E-01 0.62448E-01 0.63575E-01 0.61324E-01 0.55241E-01 0.46371E-01 0.35511E-01 0.22268E-01 0.59651E-02 -.12461E-01
 -.29490E-01 -.40148E-01 -.40652E-01 -.30833E-01 -.14738E-01 0.11814E-02 0.11473E-01 0.14563E-01 0.13005E-01 0.10852E-01
 0.10471E-01 0.11456E-01 0.12079E-01 0.11287E-01 0.94021E-02 0.74932E-02 0.65032E-02 0.67007E-02 0.75162E-02 0.79133E-02
 0.72750E-02 0.60329E-02 0.52507E-02 0.56080E-02 0.70417E-02 0.93076E-02 0.12367E-01 0.15931E-01 0.19065E-01 0.20916E-01
 0.21911E-01 0.23790E-01 0.28133E-01 0.34871E-01 0.42251E-01 0.48148E-01 0.51583E-01 0.53430E-01 0.55858E-01 0.60633E-01
 0.67304E-01 0.72979E-01 0.74437E-01 0.70953E-01 0.65168E-01 0.61010E-01 -.52573E-01 -.44793E-01 -.29070E-01 -.14383E-01
 -.94066E-02 -.23854E-01 -.69326E-01 -.15452     -.27548     -.40872     -.51542     -.55775     -.51819     -.40965    
 -.26939     -.14024     -.50824E-01 -.62301E-02 0.69134E-02 0.70057E-02 0.61773E-02 0.75695E-02 0.94586E-02 0.10066E-01
 0.92016E-02 0.75487E-02 0.58848E-02 0.48453E-02 0.46322E-02 0.48244E-02 0.48982E-02 0.49742E-02 0.56439E-02 0.70076E-02
 0.83905E-02 0.92706E-02 0.10054E-01 0.11492E-01 0.13635E-01 0.15928E-01 0.18319E-01 0.21611E-01 0.26390E-01 0.31921E-01
 0.36522E-01 0.39050E-01 0.39963E-01 0.41091E-01 0.44273E-01 0.49467E-01 0.53333E-01 0.49921E-01 0.34328E-01 0.73568E-02
 -.22977E-01 -.45453E-01 0.50482E-01 0.53718E-01 0.52889E-01 0.46185E-01 0.36390E-01 0.29003E-01 0.28010E-01 0.33121E-01
 0.40524E-01 0.45752E-01 0.46092E-01 0.41501E-01 0.34258E-01 0.27522E-01 0.23210E-01 0.20708E-01 0.17913E-01 0.13696E-01
 0.90985E-02 0.60333E-02 0.52846E-02 0.60994E-02 0.72663E-02 0.79730E-02 0.77979E-02 0.66353E-02 0.49196E-02 0.34799E-02
 0.28398E-02 0.28858E-02 0.34088E-02 0.45933E-02 0.65570E-02 0.86380E-02 0.97261E-02 0.94418E-02 0.86451E-02 0.86164E-02
 0.99881E-02 0.12630E-01 0.16252E-01 0.20684E-01 0.25529E-01 0.29872E-01 0.32688E-01 0.33711E-01 0.33988E-01 0.35444E-01
 0.39555E-01 0.46008E-01 0.52518E-01 0.56185E-01 0.55536E-01 0.51753E-01 0.48081E-01 0.47556E-01 0.15115     0.14960    
 0.13321     0.10689     0.83625E-01 0.82347E-01 0.12121     0.20804     0.33250     0.46466     0.56345     0.59361    
 0.54315     0.43000     0.29227     0.16845     0.80931E-01 0.32136E-01 0.11555E-01 0.58426E-02 0.53910E-02 0.58564E-02
 0.63640E-02 0.69057E-02 0.69926E-02 0.60812E-02 0.44448E-02 0.29843E-02 0.22652E-02 0.22374E-02 0.28871E-02 0.45187E-02
 0.70333E-02 0.93776E-02 0.10284E-01 0.95345E-02 0.81954E-02 0.76593E-02 0.87250E-02 0.11482E-01 0.15598E-01 0.20469E-01
 0.25256E-01 0.29062E-01 0.31259E-01 0.31939E-01 0.32226E-01 0.33929E-01 0.38385E-01 0.45551E-01 0.54601E-01 0.65549E-01
 0.79767E-01 0.98336E-01 0.11977     0.13945     0.50482E-01 0.53718E-01 0.52889E-01 0.46185E-01 0.36390E-01 0.29003E-01
 0.28010E-01 0.33121E-01 0.40524E-01 0.45752E-01 0.46092E-01 0.41501E-01 0.34258E-01 0.27522E-01 0.23210E-01 0.20708E-01
 0.17913E-01 0.13696E-01 0.90985E-02 0.60333E-02 0.52846E-02 0.60994E-02 0.72663E-02 0.79730E-02 0.77979E-02 0.66353E-02
 0.49196E-02 0.34799E-02 0.28398E-02 0.28858E-02 0.34088E-02 0.45933E-02 0.65570E-02 0.86380E-02 0.97261E-02 0.94418E-02
 0.86451E-02 0.86164E-02 0.99881E-02 0.12630E-01 0.16252E-01 0.20684E-01 0.25529E-01 0.29872E-01 0.32688E-01 0.33711E-01
 0.33988E-01 0.35444E-01 0.39555E-01 0.46008E-01 0.52518E-01 0.56185E-01 0.55536E-01 0.51753E-01 0.48081E-01 0.47556E-01
 -.52573E-01 -.44793E-01 -.29070E-01 -.14383E-01 -.94066E-02 -.23854E-01 -.69326E-01 -.15452     -.27548     -.40872    
 -.51542     -.55775     -.51819     -.40965     -.26939     -.14024     -.50824E-01 -.62301E-02 0.69134E-02 0.70057E-02
 0.61773E-02 0.75695E-02 0.94586E-02 0.10066E-01 0.92016E-02 0.75487E-02 0.58848E-02 0.48453E-02 0.46322E-02 0.48244E-02
 0.48982E-02 0.49742E-02 0.56439E-02 0.70076E-02 0.83905E-02 0.92706E-02 0.10054E-01 0.11492E-01 0.13635E-01 0.15928E-01
 0.18319E-01 0.21611E-01 0.26390E-01 0.31921E-01 0.36522E-01 0.39050E-01 0.39963E-01 0.41091E-01 0.44273E-01 0.49467E-01
 0.53333E-01 0.49921E-01 0.34328E-01 0.73568E-02 -.22977E-01 -.45453E-01 0.60522E-01 0.62448E-01 0.63575E-01 0.61324E-01
 0.55241E-01 0.46371E-01 0.35511E-01 0.22268E-01 0.59651E-02 -.12461E-01 -.29490E-01 -.40148E-01 -.40652E-01 -.30833E-01
 -.14738E-01 0.11814E-02 0.11473E-01 0.14563E-01 0.13005E-01 0.10852E-01 0.10471E-01 0.11456E-01 0.12079E-01 0.11287E-01
 0.94021E-02 0.74932E-02 0.65032E-02 0.67007E-02 0.75162E-02 0.79133E-02 0.72750E-02 0.60329E-02 0.52507E-02 0.56080E-02
 0.70417E-02 0.93076E-02 0.12367E-01 0.15931E-01 0.19065E-01 0.20916E-01 0.21911E-01 0.23790E-01 0.28133E-01 0.34871E-01
 0.42251E-01 0.48148E-01 0.51583E-01 0.53430E-01 0.55858E-01 0.60633E-01 0.67304E-01 0.72979E-01 0.74437E-01 0.70953E-01
 0.65168E-01 0.61010E-01 0.21218     0.20783     0.19181     0.16944     0.15096     0.15167     0.18829     0.27035    
 0.39026     0.51969     0.61741     0.64694     0.59463     0.47698     0.33187     0.19940     0.10445     0.50982E-01
 0.28225E-01 0.21552E-01 0.20071E-01 0.18511E-01 0.15569E-01 0.11790E-01 0.83326E-02 0.63735E-02 0.65693E-02 0.85178E-02
 0.10747E-01 0.11594E-01 0.10421E-01 0.80321E-02 0.59147E-02 0.52309E-02 0.65323E-02 0.99698E-02 0.15162E-01 0.20812E-01
 0.25065E-01 0.26835E-01 0.26928E-01 0.27742E-01 0.31724E-01 0.39796E-01 0.50715E-01 0.61678E-01 0.69976E-01 0.74864E-01
 0.78286E-01 0.83745E-01 0.94252E-01 0.11105     0.13350     0.15930     0.18441     0.20361     0.17090     0.17114    
 0.16999     0.16713     0.16341     0.16174     0.16626     0.17967     0.20048     0.22241     0.23672     0.23618    
 0.21836     0.18658     0.14828     0.11154     0.81986E-01 0.61531E-01 0.49030E-01 0.41672E-01 0.36220E-01 0.30161E-01
 0.22697E-01 0.14946E-01 0.89596E-02 0.62768E-02 0.70501E-02 0.10061E-01 0.13282E-01 0.14770E-01 0.13677E-01 0.10762E-01
 0.78295E-02 0.65658E-02 0.78536E-02 0.11835E-01 0.17972E-01 0.24808E-01 0.30251E-01 0.32899E-01 0.33414E-01 0.34486E-01
 0.39254E-01 0.49444E-01 0.64346E-01 0.81024E-01 0.95764E-01 0.10635     0.11360     0.12065     0.13006     0.14165    
 0.15296     0.16158     0.16684     0.16960     0.10796     0.11322     0.13040     0.15157     0.16415     0.15238    
 0.10131     0.40590E-02 -.13040     -.27416     -.38711     -.43312     -.39782     -.29664     -.16709     -.49833E-01
 0.29418E-01 0.66871E-01 0.74681E-01 0.68682E-01 0.58994E-01 0.48465E-01 0.36885E-01 0.25171E-01 0.15811E-01 0.10755E-01
 0.99923E-02 0.11980E-01 0.14695E-01 0.16307E-01 0.15800E-01 0.13603E-01 0.11369E-01 0.10703E-01 0.12185E-01 0.15675E-01
 0.20970E-01 0.27560E-01 0.34078E-01 0.38999E-01 0.42339E-01 0.46316E-01 0.54018E-01 0.67402E-01 0.86234E-01 0.10817    
 0.12961     0.14749     0.16099     0.17146     0.17962     0.18300     0.17715     0.16047     0.13748     0.11719    
 0.29549     0.29163     0.28964     0.28904     0.28524     0.27116     0.24123     0.19520     0.13927     0.84184E-01
 0.41480E-01 0.19435E-01 0.20089E-01 0.38585E-01 0.65324E-01 0.90009E-01 0.10558     0.11013     0.10606     0.97125E-01
 0.85843E-01 0.72878E-01 0.58520E-01 0.44092E-01 0.31703E-01 0.22913E-01 0.17951E-01 0.15988E-01 0.15761E-01 0.16030E-01
 0.16083E-01 0.16113E-01 0.16801E-01 0.18340E-01 0.20214E-01 0.22186E-01 0.25107E-01 0.30194E-01 0.37636E-01 0.46457E-01
 0.55881E-01 0.66439E-01 0.79674E-01 0.97082E-01 0.11929     0.14548     0.17317     0.19895     0.22056     0.23831    
 0.25424     0.26962     0.28357     0.29388     0.29896     0.29888     0.61050     0.59154     0.55737     0.52010    
 0.49087     0.48117     0.50374     0.56787     0.66969     0.78504     0.87355     0.89527     0.83130     0.69499    
 0.52545     0.36733     0.25028     0.18030     0.14526     0.12749     0.11392     0.99276E-01 0.83717E-01 0.68853E-01
 0.55433E-01 0.43371E-01 0.32754E-01 0.24196E-01 0.18330E-01 0.15415E-01 0.15505E-01 0.18485E-01 0.23442E-01 0.28327E-01
 0.31046E-01 0.31337E-01 0.31454E-01 0.34757E-01 0.43553E-01 0.58019E-01 0.76602E-01 0.97200E-01 0.11847     0.14079    
 0.16613     0.19635     0.23102     0.26700     0.30082     0.33206     0.36490     0.40576     0.45795     0.51692    
 0.57038     0.60422     0.79813     0.77567     0.74436     0.71498     0.69339     0.68206     0.68299     0.69788    
 0.72506     0.75622     0.77615     0.76752     0.71915     0.63295     0.52436     0.41509     0.32281     0.25469    
 0.20789     0.17485     0.14893     0.12709     0.10912     0.94934E-01 0.82658E-01 0.69433E-01 0.53960E-01 0.37923E-01
 0.24760E-01 0.17291E-01 0.16465E-01 0.21437E-01 0.29780E-01 0.37802E-01 0.42083E-01 0.41940E-01 0.40580E-01 0.43459E-01
 0.55098E-01 0.76759E-01 0.10609     0.13852     0.16983     0.19908     0.22972     0.26708     0.31390     0.36782    
 0.42353     0.47782     0.53236     0.59154     0.65657     0.72109     0.77260     0.79941      1.0153      1.0008    
 0.99539      1.0012      1.0066     0.99065     0.93243     0.82240     0.67072     0.50760     0.37291     0.29804    
 0.29036     0.33057     0.38449     0.42037     0.42126     0.38750     0.33140     0.26890     0.21268     0.16936    
 0.14010     0.12215     0.10990     0.96716E-01 0.78584E-01 0.56882E-01 0.37174E-01 0.24789E-01 0.21556E-01 0.25987E-01
 0.34920E-01 0.44395E-01 0.50633E-01 0.52368E-01 0.52824E-01 0.58501E-01 0.75222E-01 0.10479     0.14443     0.18848    
 0.23150     0.27209     0.31515     0.36942     0.44087     0.52754     0.62110     0.71299     0.79884     0.87700    
 0.94443     0.99508      1.0229      1.0271      1.6254      1.6210      1.6228      1.6335      1.6419      1.6297    
  1.5830      1.5001      1.3915      1.2755      1.1706      1.0868      1.0224     0.96701     0.90942     0.84209    
 0.76119     0.66519     0.55635     0.44296     0.33791     0.25324     0.19466     0.15968     0.13943     0.12310    
 0.10329     0.79413E-01 0.56453E-01 0.40129E-01 0.32883E-01 0.33660E-01 0.39802E-01 0.48240E-01 0.56102E-01 0.62283E-01
 0.69170E-01 0.82051E-01 0.10602     0.14305     0.19123     0.24615     0.30370     0.36383     0.43305     0.52189    
 0.63746     0.77689     0.92804      1.0769      1.2148      1.3388      1.4469      1.5341      1.5932      1.6213    
  2.6408      2.6516      2.6468      2.6349      2.6182      2.6017      2.5982      2.6200      2.6658      2.7130    
  2.7213      2.6489      2.4733      2.2062      1.8909      1.5809      1.3121      1.0896     0.89717     0.71817    
 0.55098     0.40697     0.29799     0.22597     0.18193     0.15259     0.12778     0.10369     0.81395E-01 0.63542E-01
 0.51838E-01 0.46507E-01 0.46836E-01 0.51851E-01 0.60837E-01 0.73746E-01 0.91433E-01 0.11561     0.14850     0.19218    
 0.24773     0.31497     0.39386     0.48721     0.60233     0.74857     0.93108      1.1450      1.3754      1.6044    
  1.8206      2.0221      2.2094      2.3768      2.5106      2.5984      3.9244      3.9534      3.9473      3.9134    
  3.8586      3.7962      3.7425      3.7066      3.6819      3.6476      3.5748      3.4362      3.2159      2.9194    
  2.5758      2.2260      1.9020      1.6130      1.3491      1.0978     0.85865     0.64450     0.47028     0.34207    
 0.25440     0.19602     0.15660     0.12919     0.10906     0.92645E-01 0.78099E-01 0.65910E-01 0.58397E-01 0.58536E-01
 0.68821E-01 0.90153E-01 0.12113     0.15897     0.20225     0.25336     0.31832     0.40443     0.51808     0.66452    
 0.84891      1.0763      1.3487      1.6609      1.9979      2.3399      2.6700      2.9796      3.2637      3.5125    
  3.7110      3.8477      5.8317      5.8516      5.8077      5.7180      5.5982      5.4612      5.3123      5.1460    
  4.9532      4.7325      4.4939      4.2482      3.9936      3.7169      3.4058      3.0607      2.6936      2.3187    
  1.9471      1.5892      1.2571     0.96365     0.71775     0.52200     0.37370     0.26778     0.19837     0.15804    
 0.13676     0.12309     0.10838     0.90790E-01 0.75562E-01 0.71023E-01 0.83374E-01 0.11368     0.15795     0.20985    
 0.26540     0.32803     0.41017     0.52880     0.69745     0.92131      1.1998      1.5326      1.9220      2.3676    
  2.8595      3.3770      3.8948      4.3896      4.8407      5.2270      5.5274      5.7285      9.0913      9.0433    
  8.8787      8.6675      8.4683      8.3173      8.2241      8.1703      8.1176      8.0220      7.8442      7.5503    
  7.1131      6.5244      5.8102      5.0279      4.2432      3.5051      2.8398      2.2591      1.7684      1.3649    
  1.0366     0.76803     0.54966     0.38070     0.26363     0.19577     0.16464     0.15093     0.13732     0.11746    
 0.97776E-01 0.90756E-01 0.10566     0.14379     0.19956     0.26485     0.33536     0.41761     0.53153     0.70321    