   2   2   0   0
  0.1080000E+03  0.6000000E-09  0.6000000E-09  0.6000000E-09  0.5000000E-15
  1.000000000000000E-004
  CAR 
 unknown system                          
      1.17474991    -29.19568588  301     -8.51460765      1.00000000
    -29.196  0.0000E+00  0.0000E+00
    -29.094  0.0000E+00  0.0000E+00
    -28.993  0.0000E+00  0.0000E+00
    -28.892  0.0000E+00  0.0000E+00
    -28.791  0.0000E+00  0.0000E+00
    -28.690  0.0000E+00  0.0000E+00
    -28.588  0.0000E+00  0.0000E+00
    -28.487  0.0000E+00  0.0000E+00
    -28.386  0.0000E+00  0.0000E+00
    -28.285  0.0000E+00  0.0000E+00
    -28.183  0.0000E+00  0.0000E+00
    -28.082  0.0000E+00  0.0000E+00
    -27.981 -0.6099-117 -0.6175-118
    -27.880 -0.3396E-16 -0.3438E-17
    -27.778  0.1976E+02  0.2000E+01
    -27.677  0.0000E+00  0.2000E+01
    -27.576  0.0000E+00  0.2000E+01
    -27.475  0.0000E+00  0.2000E+01
    -27.373  0.0000E+00  0.2000E+01
    -27.272  0.0000E+00  0.2000E+01
    -27.171  0.0000E+00  0.2000E+01
    -27.070  0.0000E+00  0.2000E+01
    -26.969  0.0000E+00  0.2000E+01
    -26.867  0.0000E+00  0.2000E+01
    -26.766  0.0000E+00  0.2000E+01
    -26.665  0.0000E+00  0.2000E+01
    -26.564  0.0000E+00  0.2000E+01
    -26.462  0.0000E+00  0.2000E+01
    -26.361  0.0000E+00  0.2000E+01
    -26.260  0.0000E+00  0.2000E+01
    -26.159  0.0000E+00  0.2000E+01
    -26.057  0.0000E+00  0.2000E+01
    -25.956  0.0000E+00  0.2000E+01
    -25.855  0.0000E+00  0.2000E+01
    -25.754  0.0000E+00  0.2000E+01
    -25.652  0.0000E+00  0.2000E+01
    -25.551  0.0000E+00  0.2000E+01
    -25.450  0.0000E+00  0.2000E+01
    -25.349  0.0000E+00  0.2000E+01
    -25.248  0.0000E+00  0.2000E+01
    -25.146  0.0000E+00  0.2000E+01
    -25.045  0.0000E+00  0.2000E+01
    -24.944  0.0000E+00  0.2000E+01
    -24.843  0.0000E+00  0.2000E+01
    -24.741  0.0000E+00  0.2000E+01
    -24.640  0.0000E+00  0.2000E+01
    -24.539  0.0000E+00  0.2000E+01
    -24.438  0.0000E+00  0.2000E+01
    -24.336  0.0000E+00  0.2000E+01
    -24.235  0.0000E+00  0.2000E+01
    -24.134  0.0000E+00  0.2000E+01
    -24.033  0.0000E+00  0.2000E+01
    -23.931  0.0000E+00  0.2000E+01
    -23.830  0.0000E+00  0.2000E+01
    -23.729  0.0000E+00  0.2000E+01
    -23.628  0.0000E+00  0.2000E+01
    -23.527  0.0000E+00  0.2000E+01
    -23.425  0.0000E+00  0.2000E+01
    -23.324  0.0000E+00  0.2000E+01
    -23.223  0.0000E+00  0.2000E+01
    -23.122  0.0000E+00  0.2000E+01
    -23.020  0.0000E+00  0.2000E+01
    -22.919  0.0000E+00  0.2000E+01
    -22.818  0.0000E+00  0.2000E+01
    -22.717  0.0000E+00  0.2000E+01
    -22.615  0.0000E+00  0.2000E+01
    -22.514  0.0000E+00  0.2000E+01
    -22.413  0.0000E+00  0.2000E+01
    -22.312  0.0000E+00  0.2000E+01
    -22.210  0.0000E+00  0.2000E+01
    -22.109  0.0000E+00  0.2000E+01
    -22.008  0.0000E+00  0.2000E+01
    -21.907  0.0000E+00  0.2000E+01
    -21.806  0.0000E+00  0.2000E+01
    -21.704  0.0000E+00  0.2000E+01
    -21.603  0.0000E+00  0.2000E+01
    -21.502  0.0000E+00  0.2000E+01
    -21.401  0.0000E+00  0.2000E+01
    -21.299  0.0000E+00  0.2000E+01
    -21.198  0.0000E+00  0.2000E+01
    -21.097  0.0000E+00  0.2000E+01
    -20.996  0.0000E+00  0.2000E+01
    -20.894  0.0000E+00  0.2000E+01
    -20.793  0.0000E+00  0.2000E+01
    -20.692  0.0000E+00  0.2000E+01
    -20.591  0.0000E+00  0.2000E+01
    -20.489  0.0000E+00  0.2000E+01
    -20.388  0.0000E+00  0.2000E+01
    -20.287  0.0000E+00  0.2000E+01
    -20.186  0.0000E+00  0.2000E+01
    -20.085  0.0000E+00  0.2000E+01
    -19.983  0.0000E+00  0.2000E+01
    -19.882  0.0000E+00  0.2000E+01
    -19.781  0.0000E+00  0.2000E+01
    -19.680  0.0000E+00  0.2000E+01
    -19.578  0.0000E+00  0.2000E+01
    -19.477  0.0000E+00  0.2000E+01
    -19.376  0.0000E+00  0.2000E+01
    -19.275  0.0000E+00  0.2000E+01
    -19.173  0.0000E+00  0.2000E+01
    -19.072  0.0000E+00  0.2000E+01
    -18.971  0.0000E+00  0.2000E+01
    -18.870  0.0000E+00  0.2000E+01
    -18.769  0.0000E+00  0.2000E+01
    -18.667  0.0000E+00  0.2000E+01
    -18.566  0.0000E+00  0.2000E+01
    -18.465  0.0000E+00  0.2000E+01
    -18.364  0.0000E+00  0.2000E+01
    -18.262  0.0000E+00  0.2000E+01
    -18.161  0.0000E+00  0.2000E+01
    -18.060  0.0000E+00  0.2000E+01
    -17.959  0.0000E+00  0.2000E+01
    -17.857  0.0000E+00  0.2000E+01
    -17.756  0.0000E+00  0.2000E+01
    -17.655  0.0000E+00  0.2000E+01
    -17.554  0.0000E+00  0.2000E+01
    -17.452  0.0000E+00  0.2000E+01
    -17.351  0.0000E+00  0.2000E+01
    -17.250  0.0000E+00  0.2000E+01
    -17.149  0.0000E+00  0.2000E+01
    -17.048  0.0000E+00  0.2000E+01
    -16.946  0.0000E+00  0.2000E+01
    -16.845  0.0000E+00  0.2000E+01
    -16.744  0.0000E+00  0.2000E+01
    -16.643  0.0000E+00  0.2000E+01
    -16.541  0.0000E+00  0.2000E+01
    -16.440  0.0000E+00  0.2000E+01
    -16.339  0.0000E+00  0.2000E+01
    -16.238  0.0000E+00  0.2000E+01
    -16.136  0.0000E+00  0.2000E+01
    -16.035  0.0000E+00  0.2000E+01
    -15.934  0.0000E+00  0.2000E+01
    -15.833  0.0000E+00  0.2000E+01
    -15.731  0.0000E+00  0.2000E+01
    -15.630  0.0000E+00  0.2000E+01
    -15.529  0.0000E+00  0.2000E+01
    -15.428  0.0000E+00  0.2000E+01
    -15.327  0.0000E+00  0.2000E+01
    -15.225  0.0000E+00  0.2000E+01
    -15.124  0.0000E+00  0.2000E+01
    -15.023  0.0000E+00  0.2000E+01
    -14.922  0.0000E+00  0.2000E+01
    -14.820  0.0000E+00  0.2000E+01
    -14.719  0.0000E+00  0.2000E+01
    -14.618  0.0000E+00  0.2000E+01
    -14.517  0.0000E+00  0.2000E+01
    -14.415  0.0000E+00  0.2000E+01
    -14.314  0.0000E+00  0.2000E+01
    -14.213  0.0000E+00  0.2000E+01
    -14.112  0.0000E+00  0.2000E+01
    -14.010  0.0000E+00  0.2000E+01
    -13.909  0.0000E+00  0.2000E+01
    -13.808  0.0000E+00  0.2000E+01
    -13.707  0.0000E+00  0.2000E+01
    -13.606 -0.1550-127  0.2000E+01
    -13.504 -0.2048E-20  0.2000E+01
    -13.403  0.1976E+02  0.4000E+01
    -13.302  0.0000E+00  0.4000E+01
    -13.201  0.0000E+00  0.4000E+01
    -13.099  0.0000E+00  0.4000E+01
    -12.998  0.0000E+00  0.4000E+01
    -12.897  0.0000E+00  0.4000E+01
    -12.796  0.0000E+00  0.4000E+01
    -12.694  0.0000E+00  0.4000E+01
    -12.593  0.0000E+00  0.4000E+01
    -12.492  0.0000E+00  0.4000E+01
    -12.391  0.0000E+00  0.4000E+01
    -12.289  0.0000E+00  0.4000E+01
    -12.188  0.0000E+00  0.4000E+01
    -12.087  0.0000E+00  0.4000E+01
    -11.986  0.0000E+00  0.4000E+01
    -11.885  0.0000E+00  0.4000E+01
    -11.783  0.0000E+00  0.4000E+01
    -11.682  0.0000E+00  0.4000E+01
    -11.581  0.0000E+00  0.4000E+01
    -11.480  0.0000E+00  0.4000E+01
    -11.378  0.0000E+00  0.4000E+01
    -11.277  0.0000E+00  0.4000E+01
    -11.176  0.0000E+00  0.4000E+01
    -11.075  0.0000E+00  0.4000E+01
    -10.973  0.0000E+00  0.4000E+01
    -10.872  0.0000E+00  0.4000E+01
    -10.771 -0.5686-121  0.4000E+01
    -10.670 -0.1382E-17  0.4000E+01
    -10.568  0.3951E+02  0.8000E+01
    -10.467  0.0000E+00  0.8000E+01
    -10.366  0.0000E+00  0.8000E+01
    -10.265  0.0000E+00  0.8000E+01
    -10.164  0.0000E+00  0.8000E+01
    -10.062  0.0000E+00  0.8000E+01
     -9.961  0.0000E+00  0.8000E+01
     -9.860  0.0000E+00  0.8000E+01
     -9.759  0.0000E+00  0.8000E+01
     -9.657  0.0000E+00  0.8000E+01
     -9.556  0.0000E+00  0.8000E+01
     -9.455  0.0000E+00  0.8000E+01
     -9.354  0.0000E+00  0.8000E+01
     -9.252  0.0000E+00  0.8000E+01
     -9.151  0.0000E+00  0.8000E+01
     -9.050  0.0000E+00  0.8000E+01
     -8.949  0.0000E+00  0.8000E+01
     -8.847  0.0000E+00  0.8000E+01
     -8.746  0.0000E+00  0.8000E+01
     -8.645 -0.1564E-62  0.8000E+01
     -8.544 -0.1225E+00  0.7988E+01
     -8.443  0.0000E+00  0.1000E+02
     -8.341  0.0000E+00  0.1000E+02
     -8.240  0.0000E+00  0.1000E+02
     -8.139  0.0000E+00  0.1000E+02
     -8.038  0.0000E+00  0.1000E+02
     -7.936  0.0000E+00  0.1000E+02
     -7.835  0.0000E+00  0.1000E+02
     -7.734  0.0000E+00  0.1000E+02
     -7.633  0.0000E+00  0.1000E+02
     -7.531  0.0000E+00  0.1000E+02
     -7.430  0.0000E+00  0.1000E+02
     -7.329  0.0000E+00  0.1000E+02
     -7.228  0.0000E+00  0.1000E+02
     -7.127  0.0000E+00  0.1000E+02
     -7.025  0.0000E+00  0.1000E+02
     -6.924  0.0000E+00  0.1000E+02
     -6.823  0.0000E+00  0.1000E+02
     -6.722  0.0000E+00  0.1000E+02
     -6.620  0.0000E+00  0.1000E+02
     -6.519  0.0000E+00  0.1000E+02
     -6.418  0.0000E+00  0.1000E+02
     -6.317  0.0000E+00  0.1000E+02
     -6.215  0.0000E+00  0.1000E+02
     -6.114  0.0000E+00  0.1000E+02
     -6.013  0.0000E+00  0.1000E+02
     -5.912  0.0000E+00  0.1000E+02
     -5.810  0.0000E+00  0.1000E+02
     -5.709  0.0000E+00  0.1000E+02
     -5.608  0.0000E+00  0.1000E+02
     -5.507  0.0000E+00  0.1000E+02
     -5.406  0.0000E+00  0.1000E+02
     -5.304  0.0000E+00  0.1000E+02
     -5.203  0.0000E+00  0.1000E+02
     -5.102  0.0000E+00  0.1000E+02
     -5.001  0.0000E+00  0.1000E+02
     -4.899  0.0000E+00  0.1000E+02
     -4.798  0.0000E+00  0.1000E+02
     -4.697  0.0000E+00  0.1000E+02
     -4.596  0.0000E+00  0.1000E+02
     -4.494  0.0000E+00  0.1000E+02
     -4.393  0.0000E+00  0.1000E+02
     -4.292  0.0000E+00  0.1000E+02
     -4.191  0.0000E+00  0.1000E+02
     -4.089  0.0000E+00  0.1000E+02
     -3.988  0.0000E+00  0.1000E+02
     -3.887  0.0000E+00  0.1000E+02
     -3.786  0.0000E+00  0.1000E+02
     -3.685  0.0000E+00  0.1000E+02
     -3.583  0.0000E+00  0.1000E+02
     -3.482  0.0000E+00  0.1000E+02
     -3.381  0.0000E+00  0.1000E+02
     -3.280  0.0000E+00  0.1000E+02
     -3.178  0.0000E+00  0.1000E+02
     -3.077  0.0000E+00  0.1000E+02
     -2.976  0.0000E+00  0.1000E+02
     -2.875  0.0000E+00  0.1000E+02
     -2.773  0.0000E+00  0.1000E+02
     -2.672  0.0000E+00  0.1000E+02
     -2.571  0.0000E+00  0.1000E+02
     -2.470  0.0000E+00  0.1000E+02
     -2.368  0.0000E+00  0.1000E+02
     -2.267  0.0000E+00  0.1000E+02
     -2.166  0.0000E+00  0.1000E+02
     -2.065 -0.5097-105  0.1000E+02
     -1.964 -0.1268E-11  0.1000E+02
     -1.862  0.3951E+02  0.1400E+02
     -1.761  0.0000E+00  0.1400E+02
     -1.660  0.0000E+00  0.1400E+02
     -1.559  0.0000E+00  0.1400E+02
     -1.457  0.0000E+00  0.1400E+02
     -1.356  0.0000E+00  0.1400E+02
     -1.255  0.0000E+00  0.1400E+02
     -1.154  0.0000E+00  0.1400E+02
     -1.052  0.0000E+00  0.1400E+02
     -0.951  0.0000E+00  0.1400E+02
     -0.850  0.0000E+00  0.1400E+02
     -0.749  0.0000E+00  0.1400E+02
     -0.647  0.0000E+00  0.1400E+02
     -0.546  0.0000E+00  0.1400E+02
     -0.445  0.0000E+00  0.1400E+02
     -0.344 -0.1325E-80  0.1400E+02
     -0.243 -0.2480E-04  0.1400E+02
     -0.141  0.1976E+02  0.1600E+02
     -0.040  0.0000E+00  0.1600E+02
      0.061  0.0000E+00  0.1600E+02
      0.162  0.0000E+00  0.1600E+02
      0.264  0.0000E+00  0.1600E+02
      0.365  0.0000E+00  0.1600E+02
      0.466  0.0000E+00  0.1600E+02
      0.567  0.0000E+00  0.1600E+02
      0.669  0.0000E+00  0.1600E+02
      0.770  0.0000E+00  0.1600E+02
      0.871  0.0000E+00  0.1600E+02
      0.972  0.0000E+00  0.1600E+02
      1.074  0.0000E+00  0.1600E+02
      1.175  0.0000E+00  0.1600E+02
