    2    2    1    1
  0.1080000E+03  0.6000000E-09  0.6000000E-09  0.6000000E-09  0.5000000E-15
  1.000000000000000E-004
  CAR 
 unknown system                          
     10      1      8
 
  0.0000000E+00  0.0000000E+00  0.0000000E+00  0.1000000E+01
    1      -27.815212
    2      -13.432653
    3      -10.602309
    4      -10.602309
    5       -8.523026
    6       -1.907406
    7       -1.907406
    8       -0.205724
