       N       E                     dE             d eps       ncg     rms          rms(c)
DAV:   1     0.579559179906E+02    0.57956E+02   -0.28734E+03    16   0.639E+02
DAV:   2    -0.110930784736E+02   -0.69049E+02   -0.69049E+02    32   0.181E+02
DAV:   3    -0.152757104810E+02   -0.41826E+01   -0.41821E+01    24   0.524E+01
DAV:   4    -0.152897940941E+02   -0.14084E-01   -0.14084E-01    16   0.288E+00
DAV:   5    -0.152899281956E+02   -0.13410E-03   -0.13410E-03    24   0.275E-01    0.616E+00
DAV:   6    -0.148325488367E+02    0.45738E+00   -0.37287E+00    16   0.139E+01    0.356E+00
DAV:   7    -0.147235763523E+02    0.10897E+00   -0.71340E-01    16   0.569E+00    0.191E+00
DAV:   8    -0.146889080664E+02    0.34668E-01   -0.11706E-01    16   0.299E+00    0.405E-01
DAV:   9    -0.146886275655E+02    0.28050E-03   -0.97828E-03    16   0.775E-01    0.144E-01
DAV:  10    -0.146899481996E+02   -0.13206E-02   -0.21189E-03    16   0.392E-01    0.346E-02
DAV:  11    -0.146907978083E+02   -0.84961E-03   -0.44503E-04    16   0.155E-01    0.300E-02
DAV:  12    -0.146904480048E+02    0.34980E-03   -0.96212E-05    16   0.801E-02    0.758E-03
DAV:  13    -0.146905342729E+02   -0.86268E-04   -0.12939E-05    16   0.266E-02
   1 F= -.14690534E+02 E0= -.14690728E+02  d E =0.579791E-03
