<?xml version="1.0" encoding="ISO-8859-1"?>
<modeling>
 <generator>
  <i name="program" type="string">vasp </i>
  <i name="version" type="string">5.3.5  </i>
  <i name="subversion" type="string">31Mar14 (build Jan 09 2015 09:29:13) complex                          parallel </i>
  <i name="platform" type="string">LinuxIFC </i>
  <i name="date" type="string">2015 01 09 </i>
  <i name="time" type="string">12:47:02 </i>
 </generator>
 <incar>
  <i type="string" name="PREC">normal</i>
  <i name="ENCUT">    350.00000000</i>
  <i type="int" name="NBANDS">     6</i>
  <i type="int" name="ISMEAR">     1</i>
  <i name="SIGMA">      0.01000000</i>
 </incar>
 <kpoints>
  <generation param="Monkhorst-Pack">
   <v type="int" name="divisions">       1        1        1 </v>
   <v name="usershift">      0.00000000       0.00000000       0.00000000 </v>
   <v name="genvec1">      1.00000000       0.00000000       0.00000000 </v>
   <v name="genvec2">      0.00000000       1.00000000       0.00000000 </v>
   <v name="genvec3">      0.00000000       0.00000000       1.00000000 </v>
   <v name="shift">      0.00000000       0.00000000       0.00000000 </v>
  </generation>
  <varray name="kpointlist" >
   <v>       0.00000000       0.00000000       0.00000000 </v>
  </varray>
  <varray name="weights" >
   <v>       1.00000000 </v>
  </varray>
 </kpoints>
 <parameters>
  <separator name="general" >
   <i type="string" name="SYSTEM">unknown system</i>
   <i type="logical" name="LCOMPAT"> F  </i>
  </separator>
  <separator name="electronic" >
   <i type="string" name="PREC">normal</i>
   <i name="ENMAX">    350.00000000</i>
   <i name="ENAUG">    644.87300000</i>
   <i name="EDIFF">      0.00010000</i>
   <i type="int" name="IALGO">    38</i>
   <i type="int" name="IWAVPR">    10</i>
   <i type="int" name="NBANDS">     8</i>
   <i name="NELECT">     10.00000000</i>
   <i type="int" name="TURBO">     0</i>
   <i type="int" name="IRESTART">     0</i>
   <i type="int" name="NREBOOT">     0</i>
   <i type="int" name="NMIN">     0</i>
   <i name="EREF">      0.00000000</i>
   <separator name="electronic smearing" >
    <i type="int" name="ISMEAR">     1</i>
    <i name="SIGMA">      0.01000000</i>
    <i name="KSPACING">      0.50000000</i>
    <i type="logical" name="KGAMMA"> T  </i>
   </separator>
   <separator name="electronic projectors" >
    <i type="logical" name="LREAL"> F  </i>
    <v name="ROPT">      0.00000000      0.00000000</v>
    <i type="int" name="LMAXPAW">  -100</i>
    <i type="int" name="LMAXMIX">     2</i>
    <i type="logical" name="NLSPLINE"> F  </i>
   </separator>
   <separator name="electronic startup" >
    <i type="int" name="ISTART">     0</i>
    <i type="int" name="ICHARG">     2</i>
    <i type="int" name="INIWAV">     1</i>
   </separator>
   <separator name="electronic spin" >
    <i type="int" name="ISPIN">     1</i>
    <i type="logical" name="LNONCOLLINEAR"> F  </i>
    <v name="MAGMOM">      1.00000000      1.00000000</v>
    <i name="NUPDOWN">     -1.00000000</i>
    <i type="logical" name="LSORBIT"> F  </i>
    <v name="SAXIS">      0.00000000      0.00000000      1.00000000</v>
    <i type="logical" name="LSPIRAL"> F  </i>
    <v name="QSPIRAL">      0.00000000      0.00000000      0.00000000</v>
    <i type="logical" name="LZEROZ"> F  </i>
   </separator>
   <separator name="electronic exchange-correlation" >
    <i type="logical" name="LASPH"> F  </i>
    <i type="logical" name="LMETAGGA"> F  </i>
   </separator>
   <separator name="electronic convergence" >
    <i type="int" name="NELM">    60</i>
    <i type="int" name="NELMDL">    -5</i>
    <i type="int" name="NELMIN">     2</i>
    <i name="ENINI">    350.00000000</i>
    <separator name="electronic convergence detail" >
     <i type="logical" name="LDIAG"> T  </i>
     <i type="logical" name="LSUBROT"> F  </i>
     <i name="WEIMIN">      0.00000000</i>
     <i name="EBREAK">      0.00000313</i>
     <i name="DEPER">      0.30000000</i>
     <i type="int" name="NRMM">     4</i>
     <i name="TIME">      0.40000000</i>
    </separator>
   </separator>
   <separator name="electronic mixer" >
    <i name="AMIX">      0.40000000</i>
    <i name="BMIX">      1.00000000</i>
    <i name="AMIN">      0.10000000</i>
    <i name="AMIX_MAG">      1.60000000</i>
    <i name="BMIX_MAG">      1.00000000</i>
    <separator name="electronic mixer details" >
     <i type="int" name="IMIX">     4</i>
     <i type="int" name="MAXMIX">   -45</i>
     <i name="WC">    100.00000000</i>
     <i type="int" name="INIMIX">     1</i>
     <i type="int" name="MIXPRE">     1</i>
     <i type="int" name="MREMOVE">     5</i>
    </separator>
   </separator>
   <separator name="electronic dipolcorrection" >
    <i type="logical" name="LDIPOL"> F  </i>
    <i type="logical" name="LMONO"> F  </i>
    <i type="int" name="IDIPOL">     0</i>
    <i name="EPSILON">      1.00000000</i>
    <v name="DIPOL">   -100.00000000   -100.00000000   -100.00000000</v>
    <i name="EFIELD">      0.00000000</i>
   </separator>
  </separator>
  <separator name="grids" >
   <i type="int" name="NGX">    28</i>
   <i type="int" name="NGY">    28</i>
   <i type="int" name="NGZ">    28</i>
   <i type="int" name="NGXF">    56</i>
   <i type="int" name="NGYF">    56</i>
   <i type="int" name="NGZF">    56</i>
   <i type="logical" name="ADDGRID"> F  </i>
  </separator>
  <separator name="ionic" >
   <i type="int" name="NSW">     0</i>
   <i type="int" name="IBRION">    -1</i>
   <i type="int" name="ISIF">     2</i>
   <i name="PSTRESS">      0.00000000</i>
   <i name="EDIFFG">      0.00100000</i>
   <i type="int" name="NFREE">     0</i>
   <i name="POTIM">      0.50000000</i>
   <i name="SMASS">     -3.00000000</i>
   <i name="SCALEE">      1.00000000</i>
  </separator>
  <separator name="ionic md" >
   <i name="TEBEG">      0.00010000</i>
   <i name="TEEND">      0.00010000</i>
   <i type="int" name="NBLOCK">     1</i>
   <i type="int" name="KBLOCK">     1</i>
   <i type="int" name="NPACO">   256</i>
   <i name="APACO">     16.00000000</i>
  </separator>
  <separator name="symmetry" >
   <i type="int" name="ISYM">     2</i>
   <i name="SYMPREC">      0.00001000</i>
  </separator>
  <separator name="dos" >
   <i type="logical" name="LORBIT"> F  </i>
   <v name="RWIGS">     -1.00000000     -1.00000000</v>
   <i type="int" name="NEDOS">   301</i>
   <i name="EMIN">     10.00000000</i>
   <i name="EMAX">    -10.00000000</i>
   <i name="EFERMI">      0.00000000</i>
  </separator>
  <separator name="writing" >
   <i type="int" name="NWRITE">     2</i>
   <i type="logical" name="LWAVE"> T  </i>
   <i type="logical" name="LCHARG"> T  </i>
   <i type="logical" name="LPARD"> F  </i>
   <i type="logical" name="LVTOT"> F  </i>
   <i type="logical" name="LVHAR"> F  </i>
   <i type="logical" name="LELF"> F  </i>
   <i type="logical" name="LOPTICS"> F  </i>
   <v name="STM">      0.00000000      0.00000000      0.00000000      0.00000000      0.00000000      0.00000000      0.00000000</v>
  </separator>
  <separator name="performance" >
   <i type="int" name="NPAR">     8</i>
   <i type="int" name="NSIM">     4</i>
   <i type="int" name="NBLK">    -1</i>
   <i type="logical" name="LPLANE"> T  </i>
   <i type="logical" name="LSCALAPACK"> F  </i>
   <i type="logical" name="LSCAAWARE"> F  </i>
   <i type="logical" name="LSCALU"> F  </i>
   <i type="logical" name="LASYNC"> F  </i>
   <i type="logical" name="LORBITALREAL"> F  </i>
  </separator>
  <separator name="miscellaneous" >
   <i type="int" name="IDIOT">     3</i>
   <i type="logical" name="LMUSIC"> F  </i>
   <v name="POMASS">     12.01100000     16.00000000</v>
   <v name="DARWINR">      0.00000000      0.00000000</v>
   <v name="DARWINV">      1.00000000      1.00000000</v>
   <i type="logical" name="LCORR"> T  </i>
  </separator>
  <i type="logical" name="GGA_COMPAT"> T  </i>
  <i type="logical" name="LBERRY"> F  </i>
  <i type="int" name="ICORELEVEL">     0</i>
  <i type="logical" name="LDAU"> F  </i>
  <i type="int" name="I_CONSTRAINED_M">     0</i>
  <separator name="electronic exchange-correlation" >
   <i type="string" name="GGA">--</i>
   <i type="int" name="VOSKOWN">     0</i>
   <i type="logical" name="LHFCALC"> F  </i>
   <i type="string" name="PRECFOCK"></i>
   <i type="logical" name="LSYMGRAD"> F  </i>
   <i type="logical" name="LHFONE"> F  </i>
   <i type="logical" name="LRHFCALC"> F  </i>
   <i type="logical" name="LTHOMAS"> F  </i>
   <i type="logical" name="LMODELHF"> F  </i>
   <i name="ENCUT4O">     -1.00000000</i>
   <i type="int" name="EXXOEP">     0</i>
   <i type="int" name="FOURORBIT">     0</i>
   <i name="AEXX">      0.00000000</i>
   <i name="HFALPHA">      0.00000000</i>
   <i name="MCALPHA">      0.00000000</i>
   <i name="ALDAX">      1.00000000</i>
   <i name="AGGAX">      1.00000000</i>
   <i name="ALDAC">      1.00000000</i>
   <i name="AGGAC">      1.00000000</i>
   <i type="int" name="NKREDX">     1</i>
   <i type="int" name="NKREDY">     1</i>
   <i type="int" name="NKREDZ">     1</i>
   <i type="logical" name="SHIFTRED"> F  </i>
   <i type="logical" name="ODDONLY"> F  </i>
   <i type="logical" name="EVENONLY"> F  </i>
   <i type="int" name="LMAXFOCK">     0</i>
   <i type="int" name="NMAXFOCKAE">     0</i>
   <i type="logical" name="LFOCKAEDFT"> F  </i>
   <i name="HFSCREEN">      0.00000000</i>
   <i name="HFSCREENC">      0.00000000</i>
   <i type="int" name="NBANDSGWLOW">     0</i>
  </separator>
  <separator name="vdW DFT" >
   <i type="logical" name="LUSE_VDW"> F  </i>
   <i name="Zab_VDW">     -0.84910000</i>
   <i name="PARAM1">      0.12340000</i>
   <i name="PARAM2">      1.00000000</i>
   <i name="PARAM3">      0.00000000</i>
  </separator>
  <separator name="model GW" >
   <i type="int" name="MODEL_GW">     0</i>
   <i name="MODEL_EPS0">     64.80000000</i>
   <i name="MODEL_ALPHA">      1.00000000</i>
  </separator>
  <separator name="linear response parameters" >
   <i type="logical" name="LEPSILON"> F  </i>
   <i type="logical" name="LRPA"> F  </i>
   <i type="logical" name="LNABLA"> F  </i>
   <i type="logical" name="LVEL"> F  </i>
   <i type="int" name="KINTER">     0</i>
   <i name="CSHIFT">      0.10000000</i>
   <i name="OMEGAMAX">     -1.00000000</i>
   <i name="DEG_THRESHOLD">      0.00200000</i>
  </separator>
  <separator name="orbital magnetization" >
   <i type="logical" name="NUCIND"> F  </i>
   <v name="MAGPOS">      0.00000000      0.00000000      0.00000000</v>
   <i type="logical" name="LNICSALL"> T  </i>
   <i type="logical" name="ORBITALMAG"> F  </i>
   <i type="logical" name="LMAGBLOCH"> F  </i>
   <i type="logical" name="LCHIMAG"> F  </i>
   <i type="logical" name="LGAUGE"> T  </i>
   <i type="int" name="MAGATOM">     0</i>
   <v name="MAGDIPOL">      0.00000000      0.00000000      0.00000000</v>
   <v name="AVECCONST">      0.00000000      0.00000000      0.00000000</v>
  </separator>
  <separator name="response functions" >
   <i type="logical" name="LADDER"> F  </i>
   <i type="logical" name="LFXC"> F  </i>
   <i type="logical" name="LHARTREE"> T  </i>
   <i type="int" name="IBSE">     0</i>
   <i type="logical" name="LTCTE"> F  </i>
   <i type="logical" name="LTETE"> F  </i>
   <i type="logical" name="LTRIPLET"> F  </i>
   <i type="logical" name="LFXCEPS"> F  </i>
   <i type="logical" name="LFXHEG"> F  </i>
   <i type="logical" name="L2ORDER"> F  </i>
   <i type="logical" name="LUSEW"> F  </i>
   <i name="ENCUTGW">     -2.00000000</i>
   <i name="ENCUTGWSOFT">     -2.00000000</i>
   <i name="ENCUTLF">     -1.00000000</i>
   <i type="int" name="LMAXMP2">    -1</i>
   <i name="SCISSOR">      0.00000000</i>
   <i type="int" name="NOMEGA">     0</i>
   <i type="int" name="NOMEGAR">     0</i>
   <i type="int" name="NBANDSGW">    -1</i>
   <i type="int" name="NBANDSO">    -1</i>
   <i type="int" name="NBANDSV">    -1</i>
   <i type="int" name="NELM">     1</i>
   <i type="int" name="DIM">     3</i>
   <i type="int" name="ANTIRES">     0</i>
   <i name="OMEGAMAX">    -30.00000000</i>
   <i name="OMEGAMIN">    -30.00000000</i>
   <i name="OMEGATL">   -200.00000000</i>
   <i type="int" name="OMEGAGRID">     0</i>
   <i name="CSHIFT">     -0.10000000</i>
   <i type="logical" name="SELFENERGY"> F  </i>
   <i type="logical" name="LSPECTRAL"> F  </i>
   <i type="logical" name="ODDONLYGW"> F  </i>
   <i type="logical" name="EVENONLYGW"> F  </i>
   <i type="int" name="NKREDLFX">     1</i>
   <i type="int" name="NKREDLFY">     1</i>
   <i type="int" name="NKREDLFZ">     1</i>
   <i type="int" name="MAXMEM">  1800</i>
   <i type="int" name="TELESCOPE">     0</i>
   <i type="int" name="TAUPAR">     1</i>
  </separator>
  <separator name="External order field" >
   <i name="OFIELD_KAPPA">      0.00000000</i>
   <v name="OFIELD_K">      0.00000000      0.00000000      0.00000000</v>
   <i name="OFIELD_Q6_NEAR">      0.00000000</i>
   <i name="OFIELD_Q6_FAR">      0.00000000</i>
   <i name="OFIELD_A">      0.00000000</i>
  </separator>
 </parameters>
 <atominfo>
  <atoms>       2 </atoms>
  <types>       2 </types>
  <array name="atoms" >
   <dimension dim="1">ion</dimension>
   <field type="string">element</field>
   <field type="int">atomtype</field>
   <set>
    <rc><c>C </c><c>   1</c></rc>
    <rc><c>O </c><c>   2</c></rc>
   </set>
  </array>
  <array name="atomtypes" >
   <dimension dim="1">type</dimension>
   <field type="int">atomspertype</field>
   <field type="string">element</field>
   <field>mass</field>
   <field>valence</field>
   <field type="string">pseudopotential</field>
   <set>
    <rc><c>   1</c><c>C </c><c>     12.01100000</c><c>      4.00000000</c><c>  PAW_PBE C 08Apr2002                   </c></rc>
    <rc><c>   1</c><c>O </c><c>     16.00000000</c><c>      6.00000000</c><c>  PAW_PBE O 08Apr2002                   </c></rc>
   </set>
  </array>
 </atominfo>
 <structure name="initialpos" >
  <crystal>
   <varray name="basis" >
    <v>       6.00000000       0.00000000       0.00000000 </v>
    <v>       0.00000000       6.00000000       0.00000000 </v>
    <v>       0.00000000       0.00000000       6.00000000 </v>
   </varray>
   <i name="volume">    216.00000000 </i>
   <varray name="rec_basis" >
    <v>       0.16666667       0.00000000       0.00000000 </v>
    <v>       0.00000000       0.16666667       0.00000000 </v>
    <v>       0.00000000       0.00000000       0.16666667 </v>
   </varray>
  </crystal>
  <varray name="positions" >
   <v>       0.00000000       0.00000000       0.00000000 </v>
   <v>       0.20000000       0.00000000       0.00000000 </v>
  </varray>
 </structure>
 <calculation>
  <scstep>
   <time name="dav">    0.02    0.02</time>
   <time name="total">    0.11    0.13</time>
   <energy>
    <i name="alphaZ">      2.02295162 </i>
    <i name="ewald">    -47.36045935 </i>
    <i name="hartreedc">   -427.92920201 </i>
    <i name="XCdc">     38.95318100 </i>
    <i name="pawpsdc">    455.07152327 </i>
    <i name="pawaedc">   -457.43959975 </i>
    <i name="eentropy">      0.00057979 </i>
    <i name="bandstr">    -84.43428705 </i>
    <i name="atom">    579.07123046 </i>
    <i name="e_fr_energy">     57.95591799 </i>
    <i name="e_wo_entrp">     57.95533820 </i>
    <i name="e_0_energy">     57.95572473 </i>
   </energy>
  </scstep>
  <scstep>
   <time name="dav">    0.03    0.04</time>
   <time name="total">    0.03    0.05</time>
   <energy>
    <i name="e_fr_energy">    -11.09307847 </i>
    <i name="e_wo_entrp">    -11.09365826 </i>
    <i name="e_0_energy">    -11.09327174 </i>
   </energy>
  </scstep>
  <scstep>
   <time name="dav">    0.02    0.02</time>
   <time name="total">    0.02    0.04</time>
   <energy>
    <i name="e_fr_energy">    -15.27571048 </i>
    <i name="e_wo_entrp">    -15.27571048 </i>
    <i name="e_0_energy">    -15.27571048 </i>
   </energy>
  </scstep>
  <scstep>
   <time name="dav">    0.01    0.01</time>
   <time name="total">    0.02    0.03</time>
   <energy>
    <i name="e_fr_energy">    -15.28979409 </i>
    <i name="e_wo_entrp">    -15.28979409 </i>
    <i name="e_0_energy">    -15.28979409 </i>
   </energy>
  </scstep>
  <scstep>
   <time name="dav">    0.04    0.04</time>
   <time name="total">    0.06    0.09</time>
   <energy>
    <i name="e_fr_energy">    -15.28992820 </i>
    <i name="e_wo_entrp">    -15.28992820 </i>
    <i name="e_0_energy">    -15.28992820 </i>
   </energy>
  </scstep>
  <scstep>
   <time name="dav">    0.02    0.02</time>
   <time name="total">    0.09    0.11</time>
   <energy>
    <i name="e_fr_energy">    -14.83254884 </i>
    <i name="e_wo_entrp">    -14.83254884 </i>
    <i name="e_0_energy">    -14.83254884 </i>
   </energy>
  </scstep>
  <scstep>
   <time name="dav">    0.02    0.02</time>
   <time name="total">    0.12    0.16</time>
   <energy>
    <i name="e_fr_energy">    -14.72357635 </i>
    <i name="e_wo_entrp">    -14.72415614 </i>
    <i name="e_0_energy">    -14.72376962 </i>
   </energy>
  </scstep>
  <scstep>
   <time name="dav">    0.05    0.05</time>
   <time name="total">    0.13    0.15</time>
   <energy>
    <i name="e_fr_energy">    -14.68890807 </i>
    <i name="e_wo_entrp">    -14.68948786 </i>
    <i name="e_0_energy">    -14.68910133 </i>
   </energy>
  </scstep>
  <scstep>
   <time name="dav">    0.02    0.02</time>
   <time name="total">    0.15    0.17</time>
   <energy>
    <i name="e_fr_energy">    -14.68862757 </i>
    <i name="e_wo_entrp">    -14.68920736 </i>
    <i name="e_0_energy">    -14.68882083 </i>
   </energy>
  </scstep>
  <scstep>
   <time name="dav">    0.02    0.02</time>
   <time name="total">    0.13    0.17</time>
   <energy>
    <i name="e_fr_energy">    -14.68994820 </i>
    <i name="e_wo_entrp">    -14.68994820 </i>
    <i name="e_0_energy">    -14.68994820 </i>
   </energy>
  </scstep>
  <scstep>
   <time name="dav">    0.03    0.03</time>
   <time name="total">    0.15    0.18</time>
   <energy>
    <i name="e_fr_energy">    -14.69079781 </i>
    <i name="e_wo_entrp">    -14.69079781 </i>
    <i name="e_0_energy">    -14.69079781 </i>
   </energy>
  </scstep>
  <scstep>
   <time name="dav">    0.05    0.06</time>
   <time name="total">    0.19    0.24</time>
   <energy>
    <i name="e_fr_energy">    -14.69044800 </i>
    <i name="e_wo_entrp">    -14.69102780 </i>
    <i name="e_0_energy">    -14.69064127 </i>
   </energy>
  </scstep>
  <scstep>
   <time name="dav">    0.02    0.02</time>
   <time name="total">    0.10    0.11</time>
   <energy>
    <i name="alphaZ">      2.02295162 </i>
    <i name="ewald">    -47.36045935 </i>
    <i name="hartreedc">   -444.13864548 </i>
    <i name="XCdc">     39.93728292 </i>
    <i name="pawpsdc">    789.31917607 </i>
    <i name="pawaedc">   -791.59163174 </i>
    <i name="eentropy">      0.00057979 </i>
    <i name="bandstr">   -141.95101857 </i>
    <i name="atom">    579.07123046 </i>
    <i name="e_fr_energy">    -14.69053427 </i>
    <i name="e_wo_entrp">    -14.69111406 </i>
    <i name="e_0_energy">    -14.69072754 </i>
   </energy>
  </scstep>
  <structure>
   <crystal>
    <varray name="basis" >
     <v>       6.00000000       0.00000000       0.00000000 </v>
     <v>       0.00000000       6.00000000       0.00000000 </v>
     <v>       0.00000000       0.00000000       6.00000000 </v>
    </varray>
    <i name="volume">    216.00000000 </i>
    <varray name="rec_basis" >
     <v>       0.16666667       0.00000000       0.00000000 </v>
     <v>       0.00000000       0.16666667       0.00000000 </v>
     <v>       0.00000000       0.00000000       0.16666667 </v>
    </varray>
   </crystal>
   <varray name="positions" >
    <v>       0.00000000       0.00000000       0.00000000 </v>
    <v>       0.20000000       0.00000000       0.00000000 </v>
   </varray>
  </structure>
  <varray name="forces" >
   <v>       5.09089107       0.00000000       0.00000000 </v>
   <v>      -5.09089107       0.00000000       0.00000000 </v>
  </varray>
  <varray name="stress" >
   <v>     -66.48848545       0.00000000       0.00000000 </v>
   <v>       0.00000000     -17.62823074       0.00000000 </v>
   <v>       0.00000000       0.00000000     -17.62823074 </v>
  </varray>
  <energy>
   <i name="e_fr_energy">    -14.69053427 </i>
   <i name="e_wo_entrp">    -14.69072754 </i>
   <i name="e_0_energy">      0.00057979 </i>
  </energy>
  <time name="totalsc">    1.98    2.54</time>
  <eigenvalues>
   <array>
    <dimension dim="1">band</dimension>
    <dimension dim="2">kpoint</dimension>
    <dimension dim="3">spin</dimension>
    <field>eigene</field>
    <field>occ</field>
    <set>
     <set comment="spin 1">
      <set comment="kpoint 1">
       <r>  -27.8152    1.0000 </r>
       <r>  -13.4327    1.0000 </r>
       <r>  -10.6023    1.0000 </r>
       <r>  -10.6023    1.0000 </r>
       <r>   -8.5230    1.0000 </r>
       <r>   -1.9074    0.0000 </r>
       <r>   -1.9074    0.0000 </r>
       <r>   -0.2057    0.0000 </r>
      </set>
     </set>
    </set>
   </array>
  </eigenvalues>
  <separator name="orbital magnetization" >
   <v name="MAGDIPOLOUT">      0.00000000      0.00000000      0.00000000</v>
  </separator>
  <dos>
   <i name="efermi">     -8.51460765 </i>
   <total>
    <array>
     <dimension dim="1">gridpoints</dimension>
     <dimension dim="2">spin</dimension>
     <field>energy</field>
     <field>total</field>
     <field>integrated</field>
     <set>
      <set comment="spin 1">
       <r>   -29.1957     0.0000     0.0000 </r>
       <r>   -29.0945     0.0000     0.0000 </r>
       <r>   -28.9932     0.0000     0.0000 </r>
       <r>   -28.8920     0.0000     0.0000 </r>
       <r>   -28.7907     0.0000     0.0000 </r>
       <r>   -28.6895     0.0000     0.0000 </r>
       <r>   -28.5883     0.0000     0.0000 </r>
       <r>   -28.4870     0.0000     0.0000 </r>
       <r>   -28.3858     0.0000     0.0000 </r>
       <r>   -28.2846     0.0000     0.0000 </r>
       <r>   -28.1833     0.0000     0.0000 </r>
       <r>   -28.0821     0.0000     0.0000 </r>
       <r>   -27.9809     0.0000     0.0000 </r>
       <r>   -27.8796     0.0000     0.0000 </r>
       <r>   -27.7784    19.7561     2.0000 </r>
       <r>   -27.6772     0.0000     2.0000 </r>
       <r>   -27.5759     0.0000     2.0000 </r>
       <r>   -27.4747     0.0000     2.0000 </r>
       <r>   -27.3735     0.0000     2.0000 </r>
       <r>   -27.2722     0.0000     2.0000 </r>
       <r>   -27.1710     0.0000     2.0000 </r>
       <r>   -27.0698     0.0000     2.0000 </r>
       <r>   -26.9685     0.0000     2.0000 </r>
       <r>   -26.8673     0.0000     2.0000 </r>
       <r>   -26.7661     0.0000     2.0000 </r>
       <r>   -26.6648     0.0000     2.0000 </r>
       <r>   -26.5636     0.0000     2.0000 </r>
       <r>   -26.4623     0.0000     2.0000 </r>
       <r>   -26.3611     0.0000     2.0000 </r>
       <r>   -26.2599     0.0000     2.0000 </r>
       <r>   -26.1586     0.0000     2.0000 </r>
       <r>   -26.0574     0.0000     2.0000 </r>
       <r>   -25.9562     0.0000     2.0000 </r>
       <r>   -25.8549     0.0000     2.0000 </r>
       <r>   -25.7537     0.0000     2.0000 </r>
       <r>   -25.6525     0.0000     2.0000 </r>
       <r>   -25.5512     0.0000     2.0000 </r>
       <r>   -25.4500     0.0000     2.0000 </r>
       <r>   -25.3488     0.0000     2.0000 </r>
       <r>   -25.2475     0.0000     2.0000 </r>
       <r>   -25.1463     0.0000     2.0000 </r>
       <r>   -25.0451     0.0000     2.0000 </r>
       <r>   -24.9438     0.0000     2.0000 </r>
       <r>   -24.8426     0.0000     2.0000 </r>
       <r>   -24.7414     0.0000     2.0000 </r>
       <r>   -24.6401     0.0000     2.0000 </r>
       <r>   -24.5389     0.0000     2.0000 </r>
       <r>   -24.4377     0.0000     2.0000 </r>
       <r>   -24.3364     0.0000     2.0000 </r>
       <r>   -24.2352     0.0000     2.0000 </r>
       <r>   -24.1339     0.0000     2.0000 </r>
       <r>   -24.0327     0.0000     2.0000 </r>
       <r>   -23.9315     0.0000     2.0000 </r>
       <r>   -23.8302     0.0000     2.0000 </r>
       <r>   -23.7290     0.0000     2.0000 </r>
       <r>   -23.6278     0.0000     2.0000 </r>
       <r>   -23.5265     0.0000     2.0000 </r>
       <r>   -23.4253     0.0000     2.0000 </r>
       <r>   -23.3241     0.0000     2.0000 </r>
       <r>   -23.2228     0.0000     2.0000 </r>
       <r>   -23.1216     0.0000     2.0000 </r>
       <r>   -23.0204     0.0000     2.0000 </r>
       <r>   -22.9191     0.0000     2.0000 </r>
       <r>   -22.8179     0.0000     2.0000 </r>
       <r>   -22.7167     0.0000     2.0000 </r>
       <r>   -22.6154     0.0000     2.0000 </r>
       <r>   -22.5142     0.0000     2.0000 </r>
       <r>   -22.4130     0.0000     2.0000 </r>
       <r>   -22.3117     0.0000     2.0000 </r>
       <r>   -22.2105     0.0000     2.0000 </r>
       <r>   -22.1093     0.0000     2.0000 </r>
       <r>   -22.0080     0.0000     2.0000 </r>
       <r>   -21.9068     0.0000     2.0000 </r>
       <r>   -21.8055     0.0000     2.0000 </r>
       <r>   -21.7043     0.0000     2.0000 </r>
       <r>   -21.6031     0.0000     2.0000 </r>
       <r>   -21.5018     0.0000     2.0000 </r>
       <r>   -21.4006     0.0000     2.0000 </r>
       <r>   -21.2994     0.0000     2.0000 </r>
       <r>   -21.1981     0.0000     2.0000 </r>
       <r>   -21.0969     0.0000     2.0000 </r>
       <r>   -20.9957     0.0000     2.0000 </r>
       <r>   -20.8944     0.0000     2.0000 </r>
       <r>   -20.7932     0.0000     2.0000 </r>
       <r>   -20.6920     0.0000     2.0000 </r>
       <r>   -20.5907     0.0000     2.0000 </r>
       <r>   -20.4895     0.0000     2.0000 </r>
       <r>   -20.3883     0.0000     2.0000 </r>
       <r>   -20.2870     0.0000     2.0000 </r>
       <r>   -20.1858     0.0000     2.0000 </r>
       <r>   -20.0846     0.0000     2.0000 </r>
       <r>   -19.9833     0.0000     2.0000 </r>
       <r>   -19.8821     0.0000     2.0000 </r>
       <r>   -19.7809     0.0000     2.0000 </r>
       <r>   -19.6796     0.0000     2.0000 </r>
       <r>   -19.5784     0.0000     2.0000 </r>
       <r>   -19.4771     0.0000     2.0000 </r>
       <r>   -19.3759     0.0000     2.0000 </r>
       <r>   -19.2747     0.0000     2.0000 </r>
       <r>   -19.1734     0.0000     2.0000 </r>
       <r>   -19.0722     0.0000     2.0000 </r>
       <r>   -18.9710     0.0000     2.0000 </r>
       <r>   -18.8697     0.0000     2.0000 </r>
       <r>   -18.7685     0.0000     2.0000 </r>
       <r>   -18.6673     0.0000     2.0000 </r>
       <r>   -18.5660     0.0000     2.0000 </r>
       <r>   -18.4648     0.0000     2.0000 </r>
       <r>   -18.3636     0.0000     2.0000 </r>
       <r>   -18.2623     0.0000     2.0000 </r>
       <r>   -18.1611     0.0000     2.0000 </r>
       <r>   -18.0599     0.0000     2.0000 </r>
       <r>   -17.9586     0.0000     2.0000 </r>
       <r>   -17.8574     0.0000     2.0000 </r>
       <r>   -17.7562     0.0000     2.0000 </r>
       <r>   -17.6549     0.0000     2.0000 </r>
       <r>   -17.5537     0.0000     2.0000 </r>
       <r>   -17.4525     0.0000     2.0000 </r>
       <r>   -17.3512     0.0000     2.0000 </r>
       <r>   -17.2500     0.0000     2.0000 </r>
       <r>   -17.1487     0.0000     2.0000 </r>
       <r>   -17.0475     0.0000     2.0000 </r>
       <r>   -16.9463     0.0000     2.0000 </r>
       <r>   -16.8450     0.0000     2.0000 </r>
       <r>   -16.7438     0.0000     2.0000 </r>
       <r>   -16.6426     0.0000     2.0000 </r>
       <r>   -16.5413     0.0000     2.0000 </r>
       <r>   -16.4401     0.0000     2.0000 </r>
       <r>   -16.3389     0.0000     2.0000 </r>
       <r>   -16.2376     0.0000     2.0000 </r>
       <r>   -16.1364     0.0000     2.0000 </r>
       <r>   -16.0352     0.0000     2.0000 </r>
       <r>   -15.9339     0.0000     2.0000 </r>
       <r>   -15.8327     0.0000     2.0000 </r>
       <r>   -15.7315     0.0000     2.0000 </r>
       <r>   -15.6302     0.0000     2.0000 </r>
       <r>   -15.5290     0.0000     2.0000 </r>
       <r>   -15.4278     0.0000     2.0000 </r>
       <r>   -15.3265     0.0000     2.0000 </r>
       <r>   -15.2253     0.0000     2.0000 </r>
       <r>   -15.1241     0.0000     2.0000 </r>
       <r>   -15.0228     0.0000     2.0000 </r>
       <r>   -14.9216     0.0000     2.0000 </r>
       <r>   -14.8203     0.0000     2.0000 </r>
       <r>   -14.7191     0.0000     2.0000 </r>
       <r>   -14.6179     0.0000     2.0000 </r>
       <r>   -14.5166     0.0000     2.0000 </r>
       <r>   -14.4154     0.0000     2.0000 </r>
       <r>   -14.3142     0.0000     2.0000 </r>
       <r>   -14.2129     0.0000     2.0000 </r>
       <r>   -14.1117     0.0000     2.0000 </r>
       <r>   -14.0105     0.0000     2.0000 </r>
       <r>   -13.9092     0.0000     2.0000 </r>
       <r>   -13.8080     0.0000     2.0000 </r>
       <r>   -13.7068     0.0000     2.0000 </r>
       <r>   -13.6055     0.0000     2.0000 </r>
       <r>   -13.5043     0.0000     2.0000 </r>
       <r>   -13.4031    19.7584     4.0002 </r>
       <r>   -13.3018     0.0000     4.0000 </r>
       <r>   -13.2006     0.0000     4.0000 </r>
       <r>   -13.0994     0.0000     4.0000 </r>
       <r>   -12.9981     0.0000     4.0000 </r>
       <r>   -12.8969     0.0000     4.0000 </r>
       <r>   -12.7957     0.0000     4.0000 </r>
       <r>   -12.6944     0.0000     4.0000 </r>
       <r>   -12.5932     0.0000     4.0000 </r>
       <r>   -12.4919     0.0000     4.0000 </r>
       <r>   -12.3907     0.0000     4.0000 </r>
       <r>   -12.2895     0.0000     4.0000 </r>
       <r>   -12.1882     0.0000     4.0000 </r>
       <r>   -12.0870     0.0000     4.0000 </r>
       <r>   -11.9858     0.0000     4.0000 </r>
       <r>   -11.8845     0.0000     4.0000 </r>
       <r>   -11.7833     0.0000     4.0000 </r>
       <r>   -11.6821     0.0000     4.0000 </r>
       <r>   -11.5808     0.0000     4.0000 </r>
       <r>   -11.4796     0.0000     4.0000 </r>
       <r>   -11.3784     0.0000     4.0000 </r>
       <r>   -11.2771     0.0000     4.0000 </r>
       <r>   -11.1759     0.0000     4.0000 </r>
       <r>   -11.0747     0.0000     4.0000 </r>
       <r>   -10.9734     0.0000     4.0000 </r>
       <r>   -10.8722     0.0000     4.0000 </r>
       <r>   -10.7710     0.0000     4.0000 </r>
       <r>   -10.6697     0.0000     4.0000 </r>
       <r>   -10.5685    39.5125     8.0000 </r>
       <r>   -10.4673     0.0000     8.0000 </r>
       <r>   -10.3660     0.0000     8.0000 </r>
       <r>   -10.2648     0.0000     8.0000 </r>
       <r>   -10.1635     0.0000     8.0000 </r>
       <r>   -10.0623     0.0000     8.0000 </r>
       <r>    -9.9611     0.0000     8.0000 </r>
       <r>    -9.8598     0.0000     8.0000 </r>
       <r>    -9.7586     0.0000     8.0000 </r>
       <r>    -9.6574     0.0000     8.0000 </r>
       <r>    -9.5561     0.0000     8.0000 </r>
       <r>    -9.4549     0.0000     8.0000 </r>
       <r>    -9.3537     0.0000     8.0000 </r>
       <r>    -9.2524     0.0000     8.0000 </r>
       <r>    -9.1512     0.0000     8.0000 </r>
       <r>    -9.0500     0.0000     8.0000 </r>
       <r>    -8.9487     0.0000     8.0000 </r>
       <r>    -8.8475     0.0000     8.0000 </r>
       <r>    -8.7463     0.0000     8.0000 </r>
       <r>    -8.6450     0.0000     8.0000 </r>
       <r>    -8.5438    -0.1225     7.9876 </r>
       <r>    -8.4426     0.0000    10.0000 </r>
       <r>    -8.3413     0.0000    10.0000 </r>
       <r>    -8.2401     0.0000    10.0000 </r>
       <r>    -8.1389     0.0000    10.0000 </r>
       <r>    -8.0376     0.0000    10.0000 </r>
       <r>    -7.9364     0.0000    10.0000 </r>
       <r>    -7.8351     0.0000    10.0000 </r>
       <r>    -7.7339     0.0000    10.0000 </r>
       <r>    -7.6327     0.0000    10.0000 </r>
       <r>    -7.5314     0.0000    10.0000 </r>
       <r>    -7.4302     0.0000    10.0000 </r>
       <r>    -7.3290     0.0000    10.0000 </r>
       <r>    -7.2277     0.0000    10.0000 </r>
       <r>    -7.1265     0.0000    10.0000 </r>
       <r>    -7.0253     0.0000    10.0000 </r>
       <r>    -6.9240     0.0000    10.0000 </r>
       <r>    -6.8228     0.0000    10.0000 </r>
       <r>    -6.7216     0.0000    10.0000 </r>
       <r>    -6.6203     0.0000    10.0000 </r>
       <r>    -6.5191     0.0000    10.0000 </r>
       <r>    -6.4179     0.0000    10.0000 </r>
       <r>    -6.3166     0.0000    10.0000 </r>
       <r>    -6.2154     0.0000    10.0000 </r>
       <r>    -6.1142     0.0000    10.0000 </r>
       <r>    -6.0129     0.0000    10.0000 </r>
       <r>    -5.9117     0.0000    10.0000 </r>
       <r>    -5.8105     0.0000    10.0000 </r>
       <r>    -5.7092     0.0000    10.0000 </r>
       <r>    -5.6080     0.0000    10.0000 </r>
       <r>    -5.5067     0.0000    10.0000 </r>
       <r>    -5.4055     0.0000    10.0000 </r>
       <r>    -5.3043     0.0000    10.0000 </r>
       <r>    -5.2030     0.0000    10.0000 </r>
       <r>    -5.1018     0.0000    10.0000 </r>
       <r>    -5.0006     0.0000    10.0000 </r>
       <r>    -4.8993     0.0000    10.0000 </r>
       <r>    -4.7981     0.0000    10.0000 </r>
       <r>    -4.6969     0.0000    10.0000 </r>
       <r>    -4.5956     0.0000    10.0000 </r>
       <r>    -4.4944     0.0000    10.0000 </r>
       <r>    -4.3932     0.0000    10.0000 </r>
       <r>    -4.2919     0.0000    10.0000 </r>
       <r>    -4.1907     0.0000    10.0000 </r>
       <r>    -4.0895     0.0000    10.0000 </r>
       <r>    -3.9882     0.0000    10.0000 </r>
       <r>    -3.8870     0.0000    10.0000 </r>
       <r>    -3.7858     0.0000    10.0000 </r>
       <r>    -3.6845     0.0000    10.0000 </r>
       <r>    -3.5833     0.0000    10.0000 </r>
       <r>    -3.4821     0.0000    10.0000 </r>
       <r>    -3.3808     0.0000    10.0000 </r>
       <r>    -3.2796     0.0000    10.0000 </r>
       <r>    -3.1783     0.0000    10.0000 </r>
       <r>    -3.0771     0.0000    10.0000 </r>
       <r>    -2.9759     0.0000    10.0000 </r>
       <r>    -2.8746     0.0000    10.0000 </r>
       <r>    -2.7734     0.0000    10.0000 </r>
       <r>    -2.6722     0.0000    10.0000 </r>
       <r>    -2.5709     0.0000    10.0000 </r>
       <r>    -2.4697     0.0000    10.0000 </r>
       <r>    -2.3685     0.0000    10.0000 </r>
       <r>    -2.2672     0.0000    10.0000 </r>
       <r>    -2.1660     0.0000    10.0000 </r>
       <r>    -2.0648     0.0000    10.0000 </r>
       <r>    -1.9635     0.0000    10.0000 </r>
       <r>    -1.8623    39.5121    14.0000 </r>
       <r>    -1.7611     0.0000    14.0000 </r>
       <r>    -1.6598     0.0000    14.0000 </r>
       <r>    -1.5586     0.0000    14.0000 </r>
       <r>    -1.4574     0.0000    14.0000 </r>
       <r>    -1.3561     0.0000    14.0000 </r>
       <r>    -1.2549     0.0000    14.0000 </r>
       <r>    -1.1537     0.0000    14.0000 </r>
       <r>    -1.0524     0.0000    14.0000 </r>
       <r>    -0.9512     0.0000    14.0000 </r>
       <r>    -0.8499     0.0000    14.0000 </r>
       <r>    -0.7487     0.0000    14.0000 </r>
       <r>    -0.6475     0.0000    14.0000 </r>
       <r>    -0.5462     0.0000    14.0000 </r>
       <r>    -0.4450     0.0000    14.0000 </r>
       <r>    -0.3438     0.0000    14.0000 </r>
       <r>    -0.2425     0.0000    14.0000 </r>
       <r>    -0.1413    19.7561    16.0000 </r>
       <r>    -0.0401     0.0000    16.0000 </r>
       <r>     0.0612     0.0000    16.0000 </r>
       <r>     0.1624     0.0000    16.0000 </r>
       <r>     0.2636     0.0000    16.0000 </r>
       <r>     0.3649     0.0000    16.0000 </r>
       <r>     0.4661     0.0000    16.0000 </r>
       <r>     0.5673     0.0000    16.0000 </r>
       <r>     0.6686     0.0000    16.0000 </r>
       <r>     0.7698     0.0000    16.0000 </r>
       <r>     0.8710     0.0000    16.0000 </r>
       <r>     0.9723     0.0000    16.0000 </r>
       <r>     1.0735     0.0000    16.0000 </r>
       <r>     1.1747     0.0000    16.0000 </r>
      </set>
     </set>
    </array>
   </total>
  </dos>
 </calculation>
 <structure name="finalpos" >
  <crystal>
   <varray name="basis" >
    <v>       6.00000000       0.00000000       0.00000000 </v>
    <v>       0.00000000       6.00000000       0.00000000 </v>
    <v>       0.00000000       0.00000000       6.00000000 </v>
   </varray>
   <i name="volume">    216.00000000 </i>
   <varray name="rec_basis" >
    <v>       0.16666667       0.00000000       0.00000000 </v>
    <v>       0.00000000       0.16666667       0.00000000 </v>
    <v>       0.00000000       0.00000000       0.16666667 </v>
   </varray>
  </crystal>
  <varray name="positions" >
   <v>       0.00000000       0.00000000       0.00000000 </v>
   <v>       0.20000000       0.00000000       0.00000000 </v>
  </varray>
 </structure>
</modeling>
