unknown system                          
           1
     6.000000    0.000000    0.000000
     0.000000    6.000000    0.000000
     0.000000    0.000000    6.000000
   C    O 
   1   1
Direct configuration=     1
   0.00000000  0.00000000  0.00000000
   0.20000000  0.00000000  0.00000000
