unknown system                          
   1.00000000000000     
     4.970986    0.000000    0.000000
    -1.656995    4.686690    0.000000
    -1.656995   -2.343345    4.058793
   Fe   Fe
     1     7
Direct
  0.000000  0.000000  0.000000
  0.500000  0.000000  0.000000
  0.000000  0.500000  0.000000
  0.500000  0.500000  0.000000
  0.000000  0.000000  0.500000
  0.500000  0.000000  0.500000
  0.000000  0.500000  0.500000
  0.500000  0.500000  0.500000
 
   40   40   40
  798.30      750.90      626.05      464.08      305.65      177.93      93.480      51.504      37.806      32.723    
  31.061      32.720      37.805      51.509      93.490      177.94      305.66      464.08      626.04      750.89    
  798.29      750.89      626.04      464.08      305.66      177.94      93.490      51.509      37.805      32.720    
  31.061      32.723      37.806      51.504      93.480      177.93      305.65      464.08      626.05      750.90    
  750.97      735.23      637.14      490.18      335.08      202.78      109.68      58.719      39.679      33.411    
  30.791      31.397      35.137      43.505      71.420      136.30      243.70      386.33      543.09      678.34    
  750.96      735.22      637.14      490.18      335.08      202.78      109.69      58.725      39.680      33.409    
  30.790      31.398      35.138      43.502      71.413      136.29      243.70      386.32      543.09      678.35    
  626.17      637.27      572.64      455.43      321.32      201.13      112.84      61.481      40.319      33.321    
  30.019      29.670      31.995      37.377      51.963      92.824      170.31      282.98      416.60      543.10    
  626.16      637.27      572.64      455.43      321.32      201.13      112.84      61.487      40.323      33.321    
  30.017      29.669      31.996      37.376      51.960      92.820      170.30      282.98      416.60      543.10    
  464.08      490.27      455.49      373.04      270.37      174.33      101.76      58.163      39.181      32.431    
  28.855      27.814      28.959      32.695      39.756      59.757      106.02      182.88      282.92      386.22    
  464.08      490.27      455.50      373.04      270.37      174.33      101.76      58.167      39.186      32.433    
  28.854      27.812      28.958      32.695      39.756      59.757      106.02      182.89      282.92      386.23    
  305.55      335.04      321.30      270.34      200.90      133.48      81.755      50.446      36.534      30.872    
  27.455      26.085      26.438      28.728      33.343      41.419      62.786      106.05      170.28      243.59    
  305.54      335.04      321.31      270.35      200.90      133.48      81.753      50.447      36.540      30.876    
  27.455      26.082      26.435      28.727      33.343      41.418      62.785      106.05      170.29      243.60    
  177.92      202.75      201.08      174.27      133.44      92.374      60.737      41.852      33.355      28.917    
  25.993      24.642      24.588      25.835      28.750      33.553      41.439      59.825      92.897      136.32    
  177.91      202.74      201.09      174.28      133.44      92.371      60.732      41.850      33.359      28.921    
  25.994      24.640      24.586      25.833      28.750      33.552      41.434      59.818      92.893      136.32    
  93.560      109.76      112.88      101.75      81.734      60.728      44.601      35.164      30.357      26.901    
  24.633      23.534      23.360      24.007      25.677      28.735      33.327      39.768      52.009      71.486    
  93.563      109.76      112.88      101.75      81.734      60.723      44.595      35.162      30.360      26.904    
  24.634      23.533      23.358      24.006      25.676      28.733      33.323      39.759      51.999      71.479    
  51.502      58.764      61.543      58.211      50.473      41.865      35.170      30.892      27.629      25.107    
  23.505      22.741      22.616      23.014      24.004      25.819      28.698      32.651      37.325      43.466    
  51.510      58.769      61.547      58.214      50.473      41.863      35.167      30.892      27.631      25.109    
  23.505      22.740      22.615      23.013      24.004      25.820      28.697      32.646      37.318      43.458    
  37.720      39.611      40.287      39.179      36.549      33.370      30.364      27.629      25.361      23.700    
  22.683      22.240      22.248      22.619      23.363      24.594      26.447      28.958      31.963      35.068    
  37.724      39.617      40.293      39.185      36.553      33.373      30.365      27.630      25.362      23.701    
  22.683      22.239      22.248      22.619      23.364      24.596      26.450      28.960      31.963      35.066    
  32.723      33.370      33.261      32.379      30.843      28.907      26.897      25.104      23.698      22.732    
  22.192      22.043      22.242      22.744      23.536      24.648      26.108      27.860      29.725      31.436    
  32.721      33.371      33.263      32.383      30.847      28.910      26.899      25.105      23.699      22.732    
  22.192      22.043      22.241      22.744      23.537      24.650      26.111      27.864      29.729      31.439    
  31.147      30.861      30.051      28.855      27.441      25.980      24.627      23.503      22.682      22.192    
  22.030      22.192      22.683      23.504      24.629      25.982      27.440      28.852      30.048      30.856    
  31.144      30.857      30.049      28.853      27.440      25.980      24.627      23.503      22.682      22.192    
  22.030      22.192      22.683      23.504      24.628      25.981      27.441      28.853      30.050      30.859    
  32.720      31.438      29.730      27.866      26.113      24.652      23.538      22.744      22.242      22.043    
  22.192      22.732      23.699      25.106      26.902      28.914      30.851      32.385      33.264      33.370    
  32.720      31.436      29.726      27.862      26.110      24.650      23.536      22.743      22.241      22.043    
  22.192      22.732      23.699      25.106      26.900      28.911      30.847      32.382      33.261      33.368    
  37.719      35.065      31.963      28.961      26.452      24.599      23.366      22.620      22.248      22.240    
  22.683      23.701      25.361      27.629      30.366      33.374      36.556      39.189      40.295      39.617    
  37.723      35.068      31.963      28.960      26.450      24.597      23.365      22.619      22.248      22.239    
  22.683      23.701      25.362      27.630      30.366      33.374      36.554      39.185      40.291      39.612    
  51.507      43.460      37.319      32.647      28.697      25.821      24.005      23.014      22.615      22.740    
  23.506      25.109      27.630      30.888      35.162      41.859      50.472      58.214      61.548      58.771    
  51.511      43.465      37.323      32.649      28.698      25.821      24.006      23.014      22.615      22.740    
  23.505      25.109      27.630      30.892      35.167      41.864      50.474      58.215      61.549      58.770    
  93.570      71.486      52.002      39.760      33.323      28.734      25.677      24.006      23.357      23.532    
  24.635      26.906      30.359      35.157      44.587      60.717      81.729      101.75      112.87      109.76    
  93.566      71.487      52.005      39.762      33.324      28.734      25.678      24.008      23.358      23.533    
  24.633      26.903      30.359      35.162      44.595      60.723      81.732      101.75      112.88      109.76    
  177.93      136.33      92.897      59.819      41.435      33.553      28.751      25.833      24.583      24.638    
  25.994      28.924      33.360      41.846      60.726      92.369      133.44      174.27      201.08      202.74    
  177.91      136.32      92.896      59.817      41.431      33.551      28.751      25.835      24.586      24.640    
  25.993      28.920      33.358      41.850      60.732      92.371      133.44      174.27      201.09      202.75    
  305.55      243.61      170.29      106.05      62.786      41.423      33.348      28.728      26.433      26.079    
  27.455      30.879      36.542      50.445      81.750      133.49      200.91      270.36      321.30      335.03    
  305.54      243.60      170.29      106.04      62.779      41.415      33.344      28.729      26.436      26.081    
  27.454      30.876      36.539      50.446      81.754      133.49      200.90      270.34      321.30      335.04    
  464.08      386.23      282.93      182.88      106.02      59.763      39.765      32.699      28.956      27.808    
  28.853      32.437      39.190      58.165      101.75      174.33      270.38      373.06      455.50      490.27    
  464.07      386.23      282.93      182.89      106.01      59.755      39.759      32.697      28.958      27.810    
  28.853      32.434      39.187      58.166      101.76      174.34      270.38      373.04      455.49      490.27    
  626.16      543.10      416.60      282.98      170.30      92.824      51.970      37.383      31.996      29.665    
  30.015      33.324      40.328      61.487      112.83      201.13      321.32      455.44      572.65      637.27    
  626.16      543.10      416.60      282.99      170.31      92.823      51.967      37.381      31.996      29.666    
  30.016      33.323      40.325      61.486      112.84      201.13      321.32      455.44      572.64      637.27    
  750.96      678.34      543.09      386.32      243.69      136.29      71.420      43.510      35.140      31.395    
  30.787      33.411      39.685      58.727      109.68      202.77      335.07      490.18      637.14      735.22    
  750.96      678.34      543.09      386.32      243.70      136.29      71.421      43.510      35.139      31.395    
  30.788      33.411      39.685      58.725      109.68      202.77      335.08      490.18      637.14      735.22    
  798.29      750.89      626.04      464.08      305.64      177.93      93.483      51.511      37.810      32.721    
  31.058      32.720      37.810      51.512      93.485      177.93      305.64      464.07      626.04      750.89    
  798.28      750.89      626.04      464.07      305.64      177.93      93.485      51.512      37.810      32.720    
  31.058      32.721      37.810      51.511      93.483      177.93      305.64      464.08      626.04      750.89    
  750.96      735.22      637.14      490.18      335.08      202.77      109.68      58.725      39.685      33.411    
  30.788      31.395      35.139      43.510      71.421      136.29      243.70      386.32      543.09      678.34    
  750.96      735.22      637.14      490.18      335.07      202.77      109.68      58.727      39.685      33.411    
  30.787      31.395      35.140      43.510      71.420      136.29      243.69      386.32      543.09      678.34    
  626.16      637.27      572.64      455.44      321.32      201.13      112.84      61.486      40.325      33.323    
  30.016      29.666      31.996      37.381      51.967      92.823      170.31      282.99      416.60      543.10    
  626.16      637.27      572.65      455.44      321.32      201.13      112.83      61.487      40.328      33.324    
  30.015      29.665      31.996      37.383      51.970      92.824      170.30      282.98      416.60      543.10    
  464.08      490.27      455.49      373.04      270.38      174.34      101.76      58.166      39.187      32.434    
  28.853      27.810      28.958      32.697      39.759      59.755      106.01      182.89      282.93      386.23    
  464.07      490.27      455.50      373.06      270.38      174.33      101.75      58.165      39.190      32.437    
  28.853      27.808      28.956      32.699      39.765      59.763      106.02      182.88      282.93      386.23    
  305.55      335.04      321.30      270.34      200.90      133.49      81.754      50.446      36.539      30.876    
  27.454      26.081      26.436      28.729      33.344      41.415      62.779      106.04      170.29      243.60    
  305.54      335.03      321.30      270.36      200.91      133.49      81.750      50.445      36.542      30.879    
  27.455      26.079      26.433      28.728      33.348      41.423      62.786      106.05      170.29      243.61    
  177.93      202.75      201.09      174.27      133.44      92.371      60.732      41.850      33.358      28.920    
  25.993      24.640      24.586      25.835      28.751      33.551      41.431      59.817      92.896      136.32    
  177.91      202.74      201.08      174.27      133.44      92.369      60.726      41.846      33.360      28.924    
  25.994      24.638      24.583      25.833      28.751      33.553      41.435      59.819      92.897      136.33    
  93.570      109.76      112.88      101.75      81.732      60.723      44.595      35.162      30.359      26.903    
  24.633      23.533      23.358      24.008      25.678      28.734      33.324      39.762      52.005      71.487    
  93.566      109.76      112.87      101.75      81.729      60.717      44.587      35.157      30.359      26.906    
  24.635      23.532      23.357      24.006      25.677      28.734      33.323      39.760      52.002      71.486    
  51.507      58.770      61.549      58.215      50.474      41.864      35.167      30.892      27.630      25.109    
  23.505      22.740      22.615      23.014      24.006      25.821      28.698      32.649      37.323      43.465    
  51.511      58.771      61.548      58.214      50.472      41.859      35.162      30.888      27.630      25.109    
  23.506      22.740      22.615      23.014      24.005      25.821      28.697      32.647      37.319      43.460    
  37.719      39.612      40.291      39.185      36.554      33.374      30.366      27.630      25.362      23.701    
  22.683      22.239      22.248      22.619      23.365      24.597      26.450      28.960      31.963      35.068    
  37.723      39.617      40.295      39.189      36.556      33.374      30.366      27.629      25.361      23.701    
  22.683      22.240      22.248      22.620      23.366      24.599      26.452      28.961      31.963      35.065    
  32.720      33.368      33.261      32.382      30.847      28.911      26.900      25.106      23.699      22.732    
  22.192      22.043      22.241      22.743      23.536      24.650      26.110      27.862      29.726      31.436    
  32.720      33.370      33.264      32.385      30.851      28.914      26.902      25.106      23.699      22.732    
  22.192      22.043      22.242      22.744      23.538      24.652      26.113      27.866      29.730      31.438    
  31.147      30.859      30.050      28.853      27.441      25.981      24.628      23.504      22.683      22.192    
  22.030      22.192      22.682      23.503      24.627      25.980      27.440      28.853      30.049      30.857    
  31.144      30.856      30.048      28.852      27.440      25.982      24.629      23.504      22.683      22.192    
  22.030      22.192      22.682      23.503      24.627      25.980      27.441      28.855      30.051      30.861    
  32.723      31.439      29.729      27.864      26.111      24.650      23.537      22.744      22.241      22.043    
  22.192      22.732      23.699      25.105      26.899      28.910      30.847      32.383      33.263      33.371    
  32.721      31.436      29.725      27.860      26.108      24.648      23.536      22.744      22.242      22.043    
  22.192      22.732      23.698      25.104      26.897      28.907      30.843      32.379      33.261      33.370    
  37.720      35.066      31.963      28.960      26.450      24.596      23.364      22.619      22.248      22.239    
  22.683      23.701      25.362      27.630      30.365      33.373      36.553      39.185      40.293      39.617    
  37.724      35.068      31.963      28.958      26.447      24.594      23.363      22.619      22.248      22.240    
  22.683      23.700      25.361      27.629      30.364      33.370      36.549      39.179      40.287      39.611    
  51.502      43.458      37.318      32.646      28.697      25.820      24.004      23.013      22.615      22.740    
  23.505      25.109      27.631      30.892      35.167      41.863      50.473      58.214      61.547      58.769    
  51.510      43.466      37.325      32.651      28.698      25.819      24.004      23.014      22.616      22.741    
  23.505      25.107      27.629      30.892      35.170      41.865      50.473      58.211      61.543      58.764    
  93.560      71.479      51.999      39.759      33.323      28.733      25.676      24.006      23.358      23.533    
  24.634      26.904      30.360      35.162      44.595      60.723      81.734      101.75      112.88      109.76    
  93.563      71.486      52.009      39.768      33.327      28.735      25.677      24.007      23.360      23.534    
  24.633      26.901      30.357      35.164      44.601      60.728      81.734      101.75      112.88      109.76    
  177.92      136.32      92.893      59.818      41.434      33.552      28.750      25.833      24.586      24.640    
  25.994      28.921      33.359      41.850      60.732      92.371      133.44      174.28      201.09      202.74    
  177.91      136.32      92.897      59.825      41.439      33.553      28.750      25.835      24.588      24.642    
  25.993      28.917      33.355      41.852      60.737      92.374      133.44      174.27      201.08      202.75    
  305.55      243.60      170.29      106.05      62.785      41.418      33.343      28.727      26.435      26.082    
  27.455      30.876      36.540      50.447      81.753      133.48      200.90      270.35      321.31      335.04    
  305.54      243.59      170.28      106.05      62.786      41.419      33.343      28.728      26.438      26.085    
  27.455      30.872      36.534      50.446      81.755      133.48      200.90      270.34      321.30      335.04    
  464.08      386.23      282.92      182.89      106.02      59.757      39.756      32.695      28.958      27.812    
  28.854      32.433      39.186      58.167      101.76      174.33      270.37      373.04      455.50      490.27    
  464.08      386.22      282.92      182.88      106.02      59.757      39.756      32.695      28.959      27.814    
  28.855      32.431      39.181      58.163      101.76      174.33      270.37      373.04      455.49      490.27    
  626.17      543.10      416.60      282.98      170.30      92.820      51.960      37.376      31.996      29.669    
  30.017      33.321      40.323      61.487      112.84      201.13      321.32      455.43      572.64      637.27    
  626.16      543.10      416.60      282.98      170.31      92.824      51.963      37.377      31.995      29.670    
  30.019      33.321      40.319      61.481      112.84      201.13      321.32      455.43      572.64      637.27    
  750.97      678.35      543.09      386.32      243.70      136.29      71.413      43.502      35.138      31.398    
  30.790      33.409      39.680      58.725      109.69      202.78      335.08      490.18      637.14      735.22    
  750.96      678.34      543.09      386.33      243.70      136.30      71.420      43.505      35.137      31.397    
  30.791      33.411      39.679      58.719      109.68      202.78      335.08      490.18      637.14      735.23    
  750.97      735.23      637.14      490.18      335.08      202.78      109.68      58.719      39.679      33.411    
  30.791      31.397      35.137      43.505      71.420      136.30      243.70      386.33      543.09      678.34    
  750.96      735.22      637.14      490.18      335.08      202.78      109.69      58.725      39.680      33.409    
  30.790      31.398      35.138      43.502      71.413      136.29      243.70      386.32      543.09      678.35    
  735.25      750.54      677.88      542.92      386.25      243.53      136.22      71.566      43.600      35.020    
  31.330      30.928      33.491      39.559      58.678      109.89      202.98      335.15      490.36      637.45    
  735.24      750.53      677.87      542.91      386.25      243.53      136.23      71.573      43.603      35.018    
  31.328      30.929      33.493      39.558      58.672      109.88      202.97      335.15      490.36      637.45    
  637.23      677.99      637.23      529.71      390.32      255.01      147.92      79.194      46.377      35.743    
  31.275      29.923      31.274      35.744      46.380      79.197      147.93      255.01      390.32      529.71    
  637.22      677.98      637.22      529.71      390.31      255.01      147.93      79.200      46.382      35.744    
  31.274      29.923      31.276      35.743      46.376      79.190      147.92      255.00      390.31      529.71    
  490.19      543.02      529.80      455.54      346.13      233.14      140.02      77.829      46.375      35.403    
  30.614      28.564      28.916      31.934      38.012      54.391      96.189      170.89      274.47      390.26    
  490.19      543.02      529.80      455.54      346.13      233.14      140.02      77.834      46.380      35.406    
  30.613      28.563      28.915      31.935      38.011      54.388      96.186      170.89      274.47      390.27    
  334.98      386.22      390.34      346.14      270.33      187.18      116.46      68.275      43.321      34.052    
  29.436      27.081      26.775      28.531      32.704      39.939      59.682      102.79      171.02      255.00    
  334.97      386.21      390.34      346.15      270.34      187.18      116.46      68.277      43.326      34.057    
  29.437      27.079      26.773      28.530      32.703      39.938      59.681      102.79      171.02      255.01    
  202.73      243.45      254.95      233.09      187.14      133.53      86.895      55.050      38.618      31.968    
  27.916      25.658      25.041      25.901      28.486      33.083      40.766      59.793      96.336      147.88    
  202.72      243.44      254.95      233.10      187.15      133.54      86.895      55.050      38.621      31.973    
  27.918      25.656      25.039      25.900      28.486      33.082      40.764      59.789      96.335      147.88    
  109.75      136.24      147.92      139.99      116.42      86.865      60.731      43.120      34.114      29.556    
  26.283      24.404      23.753      24.103      25.544      28.458      33.063      39.941      54.377      79.097    
  109.75      136.24      147.92      139.99      116.42      86.866      60.728      43.118      34.116      29.560    
  26.285      24.403      23.751      24.102      25.544      28.457      33.059      39.934      54.369      79.092    
  58.750      71.615      79.249      77.867      68.281      55.039      43.114      35.145      30.604      27.215    
  24.775      23.386      22.869      23.019      23.822      25.514      28.412      32.609      37.929      46.351    
  58.757      71.618      79.251      77.868      68.282      55.037      43.111      35.143      30.605      27.217    
  24.776      23.386      22.868      23.018      23.822      25.514      28.410      32.603      37.921      46.342    
  39.611      43.551      46.371      46.401      43.349      38.634      34.123      30.611      27.629      25.223    
  23.561      22.642      22.330      22.472      23.025      24.098      25.889      28.541      31.978      35.802    
  39.617      43.557      46.376      46.406      43.353      38.636      34.124      30.612      27.630      25.224    
  23.561      22.642      22.329      22.472      23.026      24.099      25.891      28.541      31.975      35.797    
  33.382      34.951      35.674      35.362      34.039      31.970      29.566      27.226      25.228      23.707    
  22.701      22.186      22.093      22.339      22.888      23.779      25.096      26.868      29.006      31.283    
  33.382      34.953      35.679      35.368      34.044      31.974      29.569      27.227      25.228      23.707    
  22.701      22.186      22.092      22.339      22.888      23.781      25.098      26.872      29.009      31.285    
  30.861      31.361      31.269      30.586      29.404      27.892      26.275      24.778      23.561      22.696    
  22.192      22.027      22.182      22.642      23.391      24.406      25.651      27.062      28.522      29.855    
  30.857      31.359      31.268      30.587      29.405      27.893      26.277      24.779      23.561      22.696    
  22.192      22.027      22.182      22.642      23.391      24.406      25.653      27.065      28.526      29.859    
  31.426      30.979      29.980      28.605      27.092      25.648      24.396      23.385      22.637      22.177    
  22.022      22.187      22.689      23.552      24.768      26.258      27.852      29.342      30.530      31.260    
  31.424      30.976      29.976      28.602      27.089      25.646      24.395      23.384      22.637      22.176    
  22.022      22.187      22.689      23.551      24.767      26.256      27.850      29.340      30.529      31.261    
  35.064      33.438      31.269      28.946      26.806      25.056      23.761      22.878      22.330      22.086    
  22.182      22.696      23.701      25.225      27.226      29.566      31.979      34.080      35.454      35.801    
  35.067      33.439      31.268      28.944      26.803      25.053      23.760      22.876      22.329      22.086    
  22.182      22.695      23.701      25.225      27.226      29.565      31.976      34.076      35.449      35.797    
  43.471      39.484      35.676      31.900      28.519      25.900      24.114      23.033      22.476      22.336    
  22.648      23.565      25.231      27.645      30.635      34.155      38.684      43.417      46.457      46.370    
  43.476      39.489      35.679      31.902      28.519      25.899      24.113      23.033      22.476      22.335    
  22.647      23.564      25.231      27.647      30.637      34.157      38.684      43.416      46.454      46.366    
  71.486      58.702      46.377      37.994      32.672      28.459      25.540      23.831      23.023      22.878    
  23.395      24.780      27.225      30.625      35.161      43.112      55.014      68.222      77.754      79.096    
  71.486      58.706      46.382      37.998      32.674      28.459      25.541      23.832      23.024      22.878    
  23.393      24.778      27.224      30.627      35.167      43.119      55.020      68.225      77.757      79.099    
  136.32      109.92      79.260      54.449      39.950      33.065      28.457      25.526      24.090      23.758    
  24.406      26.271      29.556      34.130      43.106      60.657      86.757      116.30      139.89      147.87    
  136.31      109.92      79.260      54.450      39.950      33.064      28.456      25.527      24.092      23.760    
  24.406      26.268      29.554      34.132      43.113      60.665      86.761      116.30      139.89      147.88    
  243.63      202.90      147.92      96.246      59.717      40.761      33.073      28.445      25.889      25.064    
  25.650      27.881      31.977      38.651      55.012      86.787      133.46      187.15      233.14      255.04    
  243.62      202.89      147.92      96.244      59.712      40.754      33.069      28.445      25.892      25.067    
  25.650      27.878      31.973      38.651      55.018      86.792      133.46      187.14      233.14      255.05    
  386.30      335.04      254.91      170.89      102.79      59.757      39.931      32.655      28.561      26.827    
  27.044      29.384      34.098      43.375      68.204      116.35      187.19      270.42      346.17      390.36    
  386.30      335.03      254.91      170.89      102.79      59.749      39.925      32.653      28.562      26.829    
  27.045      29.382      34.094      43.374      68.208      116.35      187.18      270.41      346.16      390.35    
  543.19      490.34      390.25      274.47      171.02      96.274      54.317      37.960      32.018      28.961    
  28.469      30.562      35.493      46.408      77.693      139.91      233.18      346.15      455.44      529.79    
  543.19      490.34      390.25      274.47      171.03      96.271      54.312      37.957      32.018      28.963    
  28.470      30.561      35.491      46.407      77.695      139.91      233.18      346.14      455.43      529.78    
  678.43      637.47      529.68      390.30      255.07      147.86      79.010      46.348      35.862      31.262    
  29.775      31.262      35.862      46.347      79.008      147.86      255.08      390.30      529.68      637.47    
  678.43      637.47      529.68      390.31      255.08      147.86      79.010      46.347      35.861      31.262    
  29.776      31.263      35.861      46.345      79.008      147.86      255.08      390.31      529.68      637.47    
  750.96      735.22      637.14      490.18      335.07      202.77      109.68      58.726      39.685      33.411    
  30.787      31.395      35.140      43.510      71.420      136.29      243.69      386.32      543.09      678.34    
  750.96      735.21      637.14      490.18      335.07      202.77      109.68      58.727      39.685      33.410    