   8   8   1   0
  0.1181995E+02  0.4970986E-09  0.4970986E-09  0.4970986E-09  0.5000000E-15
  1.000000000000000E-004
  CAR 
 unknown system                          
      9.50914247     -3.40552923  301      5.44689629      1.00000000
     -3.406  0.0000E+00  0.0000E+00
     -3.362  0.0000E+00  0.0000E+00
     -3.319  0.0000E+00  0.0000E+00
     -3.276  0.0000E+00  0.0000E+00
     -3.233 -0.1766E-28 -0.7601E-30
     -3.190 -0.1730E-25 -0.7456E-27
     -3.147 -0.1167E-22 -0.5033E-24
     -3.104 -0.5418E-20 -0.2338E-21
     -3.061 -0.1729E-17 -0.7466E-19
     -3.018 -0.3790E-15 -0.1639E-16
     -2.975 -0.5533E-13 -0.2398E-14
     -2.932 -0.5674E-11 -0.2467E-12
     -2.889 -0.3981E-09 -0.1738E-10
     -2.846 -0.1905E-07 -0.8374E-09
     -2.803 -0.6192E-06 -0.2749E-07
     -2.760 -0.1360E-04 -0.6129E-06
     -2.717 -0.2001E-03 -0.9225E-05
     -2.674 -0.1942E-02 -0.9282E-04
     -2.631 -0.1209E-01 -0.6133E-03
     -2.588 -0.4520E-01 -0.2559E-02
     -2.545 -0.8047E-01 -0.6023E-02
     -2.502  0.5094E-01 -0.3830E-02
     -2.458  0.5867E+00  0.2143E-01
     -2.415  0.1318E+01  0.7816E-01
     -2.372  0.1513E+01  0.1433E+00
     -2.329  0.9382E+00  0.1837E+00
     -2.286  0.2419E+00  0.1941E+00
     -2.243 -0.5791E-01  0.1916E+00
     -2.200 -0.6664E-01  0.1888E+00
     -2.157 -0.2377E-01  0.1877E+00
     -2.114 -0.5011E-02  0.1875E+00
     -2.071 -0.3050E-02  0.1874E+00
     -2.028 -0.1550E-01  0.1867E+00
     -1.985 -0.5865E-01  0.1842E+00
     -1.942 -0.1073E+00  0.1796E+00
     -1.899  0.5719E-01  0.1820E+00
     -1.856  0.7565E+00  0.2146E+00
     -1.813  0.1736E+01  0.2894E+00
     -1.770  0.2026E+01  0.3766E+00
     -1.727  0.1278E+01  0.4316E+00
     -1.684  0.3413E+00  0.4463E+00
     -1.641 -0.7335E-01  0.4431E+00
     -1.597 -0.9041E-01  0.4392E+00
     -1.554 -0.3320E-01  0.4378E+00
     -1.511 -0.1094E-01  0.4373E+00
     -1.468 -0.3111E-01  0.4360E+00
     -1.425 -0.1322E+00  0.4303E+00
     -1.382 -0.3055E+00  0.4172E+00
     -1.339 -0.7863E-01  0.4138E+00
     -1.296  0.1570E+01  0.4814E+00
     -1.253  0.4530E+01  0.6764E+00
     -1.210  0.6187E+01  0.9427E+00
     -1.167  0.4597E+01  0.1141E+01
     -1.124  0.1631E+01  0.1211E+01
     -1.081 -0.6001E-01  0.1208E+01
     -1.038 -0.3081E+00  0.1195E+01
     -0.995 -0.1359E+00  0.1189E+01
     -0.952 -0.3152E-01  0.1188E+01
     -0.909 -0.4494E-02  0.1188E+01
     -0.866 -0.4149E-03  0.1188E+01
     -0.823 -0.2540E-04  0.1188E+01
     -0.780 -0.1044E-05  0.1188E+01
     -0.736 -0.2906E-07  0.1188E+01
     -0.693 -0.1096E-08  0.1187E+01
     -0.650 -0.2915E-07  0.1187E+01
     -0.607 -0.1059E-05  0.1187E+01
     -0.564 -0.2609E-04  0.1187E+01
     -0.521 -0.4327E-03  0.1187E+01
     -0.478 -0.4771E-02  0.1187E+01
     -0.435 -0.3421E-01  0.1186E+01
     -0.392 -0.1521E+00  0.1179E+01
     -0.349 -0.3639E+00  0.1164E+01
     -0.306 -0.1415E+00  0.1157E+01
     -0.263  0.1748E+01  0.1233E+01
     -0.220  0.5344E+01  0.1463E+01
     -0.177  0.7630E+01  0.1791E+01
     -0.134  0.5984E+01  0.2049E+01
     -0.091  0.2340E+01  0.2150E+01
     -0.048  0.5450E-01  0.2152E+01
     -0.005 -0.3920E+00  0.2135E+01
      0.038 -0.2460E+00  0.2124E+01
      0.081 -0.2485E+00  0.2114E+01
      0.124 -0.3239E+00  0.2100E+01
      0.168  0.3473E+00  0.2115E+01
      0.211  0.2667E+01  0.2230E+01
      0.254  0.5507E+01  0.2467E+01
      0.297  0.5903E+01  0.2721E+01
      0.340  0.3300E+01  0.2863E+01
      0.383  0.4598E+00  0.2883E+01
      0.426 -0.4171E+00  0.2865E+01
      0.469  0.1085E+01  0.2911E+01
      0.512  0.4165E+01  0.3091E+01
      0.555  0.6150E+01  0.3355E+01
      0.598  0.4861E+01  0.3565E+01
      0.641  0.1887E+01  0.3646E+01
      0.684  0.2536E-01  0.3647E+01
      0.727 -0.3169E+00  0.3633E+01
      0.770 -0.1519E+00  0.3627E+01
      0.813 -0.3712E-01  0.3625E+01
      0.856 -0.5534E-02  0.3625E+01
      0.899 -0.6149E-03  0.3625E+01
      0.942 -0.1209E-02  0.3625E+01
      0.985 -0.1109E-01  0.3624E+01
      1.029 -0.6857E-01  0.3622E+01
      1.072 -0.2671E+00  0.3610E+01
      1.115 -0.5775E+00  0.3585E+01
      1.158 -0.2303E+00  0.3575E+01
      1.201  0.2508E+01  0.3683E+01
      1.244  0.8394E+01  0.4045E+01
      1.287  0.1453E+02  0.4670E+01
      1.330  0.1634E+02  0.5373E+01
      1.373  0.1363E+02  0.5960E+01
      1.416  0.1021E+02  0.6400E+01
      1.459  0.7313E+01  0.6715E+01
      1.502  0.4470E+01  0.6907E+01
      1.545  0.4386E+01  0.7096E+01
      1.588  0.8836E+01  0.7476E+01
      1.631  0.1299E+02  0.8035E+01
      1.674  0.1145E+02  0.8528E+01
      1.717  0.6484E+01  0.8807E+01
      1.760  0.3827E+01  0.8972E+01
      1.803  0.4713E+01  0.9175E+01
      1.846  0.6794E+01  0.9467E+01
      1.889  0.9168E+01  0.9862E+01
      1.933  0.1141E+02  0.1035E+02
      1.976  0.1260E+02  0.1090E+02
      2.019  0.1455E+02  0.1152E+02
      2.062  0.1761E+02  0.1228E+02
      2.105  0.1786E+02  0.1305E+02
      2.148  0.1516E+02  0.1370E+02
      2.191  0.1283E+02  0.1425E+02
      2.234  0.1105E+02  0.1473E+02
      2.277  0.8894E+01  0.1511E+02
      2.320  0.6245E+01  0.1538E+02
      2.363  0.3396E+01  0.1553E+02
      2.406  0.2509E+01  0.1564E+02
      2.449  0.4800E+01  0.1584E+02
      2.492  0.7044E+01  0.1615E+02
      2.535  0.6129E+01  0.1641E+02
      2.578  0.4770E+01  0.1662E+02
      2.621  0.7302E+01  0.1693E+02
      2.664  0.1256E+02  0.1747E+02
      2.707  0.1624E+02  0.1817E+02
      2.750  0.1827E+02  0.1896E+02
      2.794  0.2216E+02  0.1991E+02
      2.837  0.2547E+02  0.2101E+02
      2.880  0.2150E+02  0.2193E+02
      2.923  0.1364E+02  0.2252E+02
      2.966  0.1137E+02  0.2301E+02
      3.009  0.1404E+02  0.2361E+02
      3.052  0.1659E+02  0.2433E+02
      3.095  0.2184E+02  0.2527E+02
      3.138  0.2986E+02  0.2655E+02
      3.181  0.3056E+02  0.2787E+02
      3.224  0.2220E+02  0.2882E+02
      3.267  0.1744E+02  0.2958E+02
      3.310  0.2094E+02  0.3048E+02
      3.353  0.2213E+02  0.3143E+02
      3.396  0.1522E+02  0.3208E+02
      3.439  0.8247E+01  0.3244E+02
      3.482  0.7703E+01  0.3277E+02
      3.525  0.1008E+02  0.3321E+02
      3.568  0.1414E+02  0.3381E+02
      3.611  0.2374E+02  0.3484E+02
      3.654  0.3379E+02  0.3629E+02
      3.698  0.3443E+02  0.3777E+02
      3.741  0.2874E+02  0.3901E+02
      3.784  0.2583E+02  0.4012E+02
      3.827  0.2464E+02  0.4118E+02
      3.870  0.2045E+02  0.4206E+02
      3.913  0.1622E+02  0.4276E+02
      3.956  0.1652E+02  0.4347E+02
      3.999  0.1879E+02  0.4428E+02
      4.042  0.1728E+02  0.4502E+02
      4.085  0.1117E+02  0.4551E+02
      4.128  0.4789E+01  0.4571E+02
      4.171  0.1591E+01  0.4578E+02
      4.214  0.1024E+01  0.4582E+02
      4.257  0.8993E+00  0.4586E+02
      4.300  0.4003E+00  0.4588E+02
      4.343 -0.5132E-01  0.4588E+02
      4.386 -0.2624E+00  0.4587E+02
      4.429 -0.3886E+00  0.4585E+02
      4.472 -0.2852E+00  0.4584E+02
      4.515  0.1032E+01  0.4588E+02
      4.559  0.5570E+01  0.4612E+02
      4.602  0.1357E+02  0.4671E+02
      4.645  0.1921E+02  0.4753E+02
      4.688  0.1599E+02  0.4822E+02
      4.731  0.7796E+01  0.4856E+02
      4.774  0.4508E+01  0.4875E+02
      4.817  0.8017E+01  0.4910E+02
      4.860  0.1201E+02  0.4961E+02
      4.903  0.1345E+02  0.5019E+02
      4.946  0.1584E+02  0.5087E+02
      4.989  0.2066E+02  0.5176E+02
      5.032  0.2434E+02  0.5281E+02
      5.075  0.2452E+02  0.5387E+02
      5.118  0.2120E+02  0.5478E+02
      5.161  0.1640E+02  0.5548E+02
      5.204  0.1534E+02  0.5615E+02
      5.247  0.2087E+02  0.5704E+02
      5.290  0.2982E+02  0.5833E+02
      5.333  0.3668E+02  0.5991E+02
      5.376  0.3784E+02  0.6154E+02
      5.419  0.3550E+02  0.6306E+02
      5.463  0.3416E+02  0.6453E+02
      5.506  0.3527E+02  0.6605E+02
      5.549  0.3975E+02  0.6776E+02
      5.592  0.4595E+02  0.6974E+02
      5.635  0.4697E+02  0.7176E+02
      5.678  0.3833E+02  0.7341E+02
      5.721  0.2421E+02  0.7446E+02
      5.764  0.1513E+02  0.7511E+02
      5.807  0.1717E+02  0.7585E+02
      5.850  0.2274E+02  0.7683E+02
      5.893  0.2100E+02  0.7773E+02
      5.936  0.1333E+02  0.7830E+02
      5.979  0.7432E+01  0.7862E+02
      6.022  0.5849E+01  0.7888E+02
      6.065  0.7770E+01  0.7921E+02
      6.108  0.1153E+02  0.7971E+02
      6.151  0.1423E+02  0.8032E+02
      6.194  0.1429E+02  0.8093E+02
      6.237  0.1234E+02  0.8147E+02
      6.280  0.9373E+01  0.8187E+02
      6.324  0.6795E+01  0.8216E+02
      6.367  0.6560E+01  0.8244E+02
      6.410  0.9072E+01  0.8283E+02
      6.453  0.1285E+02  0.8339E+02
      6.496  0.1478E+02  0.8402E+02
      6.539  0.1180E+02  0.8453E+02
      6.582  0.5472E+01  0.8477E+02
      6.625  0.5701E+00  0.8479E+02
      6.668 -0.9494E+00  0.8475E+02
      6.711  0.6437E-01  0.8475E+02
      6.754  0.2841E+01  0.8488E+02
      6.797  0.5585E+01  0.8512E+02
      6.840  0.5473E+01  0.8535E+02
      6.883  0.2901E+01  0.8548E+02
      6.926  0.1775E+01  0.8555E+02
      6.969  0.3776E+01  0.8572E+02
      7.012  0.5743E+01  0.8596E+02
      7.055  0.4406E+01  0.8615E+02
      7.098  0.1487E+01  0.8622E+02
      7.141  0.1733E+01  0.8629E+02
      7.185  0.6770E+01  0.8658E+02
      7.228  0.1180E+02  0.8709E+02
      7.271  0.1081E+02  0.8756E+02
      7.314  0.5083E+01  0.8777E+02
      7.357  0.5812E+00  0.8780E+02
      7.400 -0.6391E+00  0.8777E+02
      7.443 -0.3865E+00  0.8776E+02
      7.486 -0.1075E+00  0.8775E+02
      7.529 -0.1781E-01  0.8775E+02
      7.572 -0.1888E-02  0.8775E+02
      7.615 -0.1319E-03  0.8775E+02
      7.658 -0.6168E-05  0.8775E+02
      7.701 -0.1948E-06  0.8775E+02
      7.744 -0.4177E-08  0.8775E+02
      7.787 -0.6107E-10  0.8775E+02
      7.830 -0.6074E-12  0.8775E+02
      7.873 -0.7766E-14  0.8775E+02
      7.916 -0.5282E-14  0.8775E+02
      7.959 -0.6466E-12  0.8775E+02
      8.002 -0.5576E-10  0.8775E+02
      8.045 -0.3284E-08  0.8775E+02
      8.089 -0.1316E-06  0.8775E+02
      8.132 -0.3578E-05  0.8775E+02
      8.175 -0.6547E-04  0.8775E+02
      8.218 -0.7978E-03  0.8775E+02
      8.261 -0.6348E-02  0.8775E+02
      8.304 -0.3167E-01  0.8775E+02
      8.347 -0.8886E-01  0.8774E+02
      8.390 -0.7722E-01  0.8774E+02
      8.433  0.3226E+00  0.8776E+02
      8.476  0.1251E+01  0.8781E+02
      8.519  0.2018E+01  0.8790E+02
      8.562  0.1757E+01  0.8797E+02
      8.605  0.7822E+00  0.8801E+02
      8.648  0.6792E-01  0.8801E+02
      8.691 -0.1073E+00  0.8800E+02
      8.734 -0.6026E-01  0.8800E+02
      8.777 -0.1612E-01  0.8800E+02
      8.820 -0.2589E-02  0.8800E+02
      8.863 -0.2667E-03  0.8800E+02
      8.906 -0.1813E-04  0.8800E+02
      8.950 -0.8256E-06  0.8800E+02
      8.993 -0.2540E-07  0.8800E+02
      9.036 -0.5308E-09  0.8800E+02
      9.079 -0.7565E-11  0.8800E+02
      9.122 -0.7350E-13  0.8800E+02
      9.165  0.0000E+00  0.8800E+02
      9.208  0.0000E+00  0.8800E+02
      9.251  0.0000E+00  0.8800E+02
      9.294  0.0000E+00  0.8800E+02
      9.337  0.0000E+00  0.8800E+02
      9.380  0.0000E+00  0.8800E+02
      9.423  0.0000E+00  0.8800E+02
      9.466  0.0000E+00  0.8800E+02
      9.509  0.0000E+00  0.8800E+02
      9.50914247     -3.40552923  301      5.44689629      1.00000000
     -3.406  0.0000E+00  0.0000E+00  0.0000E+00  0.0000E+00  0.0000E+00  0.0000E+00  0.0000E+00  0.0000E+00  0.0000E+00
     -3.362  0.0000E+00  0.0000E+00  0.0000E+00  0.0000E+00  0.0000E+00  0.0000E+00  0.0000E+00  0.0000E+00  0.0000E+00
     -3.319  0.0000E+00  0.0000E+00  0.0000E+00  0.0000E+00  0.0000E+00  0.0000E+00  0.0000E+00  0.0000E+00  0.0000E+00
     -3.276  0.0000E+00  0.0000E+00  0.0000E+00  0.0000E+00  0.0000E+00  0.0000E+00  0.0000E+00  0.0000E+00  0.0000E+00
     -3.233 -0.1492E-29 -0.7840E-32 -0.2352E-31 -0.1568E-31 -0.1791E-33 -0.2678E-33 -0.6697E-34 -0.5373E-33 -0.2231E-34
     -3.190 -0.1462E-26 -0.7682E-29 -0.2305E-28 -0.1537E-28 -0.1755E-30 -0.2625E-30 -0.6562E-31 -0.5265E-30 -0.2187E-31
     -3.147 -0.9865E-24 -0.5184E-26 -0.1555E-25 -0.1037E-25 -0.1184E-27 -0.1771E-27 -0.4428E-28 -0.3553E-27 -0.1475E-28
     -3.104 -0.4578E-21 -0.2406E-23 -0.7218E-23 -0.4812E-23 -0.5496E-25 -0.8220E-25 -0.2055E-25 -0.1649E-24 -0.6848E-26
     -3.061 -0.1461E-18 -0.7677E-21 -0.2303E-20 -0.1535E-20 -0.1754E-22 -0.2623E-22 -0.6557E-23 -0.5261E-22 -0.2185E-23
     -3.018 -0.3202E-16 -0.1683E-18 -0.5048E-18 -0.3365E-18 -0.3844E-20 -0.5749E-20 -0.1437E-20 -0.1153E-19 -0.4789E-21
     -2.975 -0.4675E-14 -0.2457E-16 -0.7370E-16 -0.4913E-16 -0.5612E-18 -0.8393E-18 -0.2098E-18 -0.1684E-17 -0.6992E-19
     -2.932 -0.4794E-12 -0.2519E-14 -0.7558E-14 -0.5039E-14 -0.5756E-16 -0.8607E-16 -0.2152E-16 -0.1727E-15 -0.7170E-17
     -2.889 -0.3364E-10 -0.1768E-12 -0.5303E-12 -0.3535E-12 -0.4038E-14 -0.6039E-14 -0.1510E-14 -0.1211E-13 -0.5031E-15
     -2.846 -0.1609E-08 -0.8458E-11 -0.2537E-10 -0.1692E-10 -0.1932E-12 -0.2889E-12 -0.7224E-13 -0.5797E-12 -0.2407E-13
     -2.803 -0.5232E-07 -0.2749E-09 -0.8248E-09 -0.5499E-09 -0.6281E-11 -0.9393E-11 -0.2348E-11 -0.1884E-10 -0.7825E-12
     -2.760 -0.1149E-05 -0.6039E-08 -0.1812E-07 -0.1208E-07 -0.1380E-09 -0.2063E-09 -0.5158E-10 -0.4139E-09 -0.1719E-10
     -2.717 -0.1690E-04 -0.8883E-07 -0.2665E-06 -0.1777E-06 -0.2029E-08 -0.3035E-08 -0.7588E-09 -0.6088E-08 -0.2528E-09
     -2.674 -0.1641E-03 -0.8623E-06 -0.2587E-05 -0.1725E-05 -0.1970E-07 -0.2946E-07 -0.7365E-08 -0.5910E-07 -0.2454E-08
     -2.631 -0.1022E-02 -0.5369E-05 -0.1611E-04 -0.1074E-04 -0.1226E-06 -0.1834E-06 -0.4586E-07 -0.3679E-06 -0.1528E-07
     -2.588 -0.3819E-02 -0.2007E-04 -0.6021E-04 -0.4014E-04 -0.4585E-06 -0.6856E-06 -0.1714E-06 -0.1375E-05 -0.5712E-07
     -2.545 -0.6800E-02 -0.3573E-04 -0.1072E-03 -0.7146E-04 -0.8163E-06 -0.1221E-05 -0.3052E-06 -0.2449E-05 -0.1017E-06
     -2.502  0.4305E-02  0.2262E-04  0.6786E-04  0.4524E-04  0.5168E-06  0.7728E-06  0.1932E-06  0.1550E-05  0.6438E-07
     -2.458  0.4957E-01  0.2605E-03  0.7815E-03  0.5210E-03  0.5951E-05  0.8900E-05  0.2225E-05  0.1785E-04  0.7414E-06
     -2.415  0.1114E+00  0.5853E-03  0.1756E-02  0.1171E-02  0.1337E-04  0.1999E-04  0.4999E-05  0.4011E-04  0.1666E-05
     -2.372  0.1279E+00  0.6720E-03  0.2016E-02  0.1344E-02  0.1535E-04  0.2296E-04  0.5740E-05  0.4606E-04  0.1913E-05
     -2.329  0.7927E-01  0.4166E-03  0.1250E-02  0.8332E-03  0.9517E-05  0.1423E-04  0.3558E-05  0.2855E-04  0.1186E-05
     -2.286  0.2044E-01  0.1074E-03  0.3223E-03  0.2149E-03  0.2454E-05  0.3670E-05  0.9177E-06  0.7363E-05  0.3058E-06
     -2.243 -0.4893E-02 -0.2572E-04 -0.7715E-04 -0.5143E-04 -0.5875E-06 -0.8785E-06 -0.2197E-06 -0.1762E-05 -0.7319E-07
     -2.200 -0.5631E-02 -0.2959E-04 -0.8878E-04 -0.5918E-04 -0.6761E-06 -0.1011E-05 -0.2529E-06 -0.2028E-05 -0.8423E-07
     -2.157 -0.2008E-02 -0.1057E-04 -0.3172E-04 -0.2111E-04 -0.2418E-06 -0.3657E-06 -0.9311E-07 -0.7255E-06 -0.3013E-07
     -2.114 -0.4221E-03 -0.2531E-05 -0.7593E-05 -0.4437E-05 -0.6164E-07 -0.1523E-06 -0.6312E-07 -0.1849E-06 -0.7688E-08
     -2.071 -0.2447E-03 -0.4360E-05 -0.1308E-04 -0.2579E-05 -0.1371E-06 -0.7953E-06 -0.4446E-06 -0.4113E-06 -0.1716E-07
     -2.028 -0.1228E-02 -0.2583E-04 -0.7749E-04 -0.1295E-04 -0.8265E-06 -0.4957E-05 -0.2788E-05 -0.2479E-05 -0.1035E-06
     -1.985 -0.4645E-02 -0.9795E-04 -0.2938E-03 -0.4898E-04 -0.3135E-05 -0.1881E-04 -0.1058E-04 -0.9404E-05 -0.3924E-06
     -1.942 -0.8501E-02 -0.1793E-03 -0.5378E-03 -0.8964E-04 -0.5737E-05 -0.3443E-04 -0.1937E-04 -0.1721E-04 -0.7183E-06
     -1.899  0.4529E-02  0.9552E-04  0.2865E-03  0.4776E-04  0.3057E-05  0.1834E-04  0.1032E-04  0.9171E-05  0.3827E-06
     -1.856  0.5991E-01  0.1263E-02  0.3790E-02  0.6317E-03  0.4044E-04  0.2426E-03  0.1365E-03  0.1213E-03  0.5062E-05
     -1.813  0.1375E+00  0.2900E-02  0.8700E-02  0.1450E-02  0.9281E-04  0.5569E-03  0.3133E-03  0.2784E-03  0.1162E-04
     -1.770  0.1604E+00  0.3384E-02  0.1015E-01  0.1692E-02  0.1083E-03  0.6497E-03  0.3655E-03  0.3249E-03  0.1356E-04
     -1.727  0.1012E+00  0.2134E-02  0.6403E-02  0.1067E-02  0.6831E-04  0.4099E-03  0.2306E-03  0.2049E-03  0.8552E-05
     -1.684  0.2703E-01  0.5700E-03  0.1710E-02  0.2850E-03  0.1824E-04  0.1095E-03  0.6158E-04  0.5472E-04  0.2284E-05
     -1.641 -0.5808E-02 -0.1225E-03 -0.3675E-03 -0.6125E-04 -0.3921E-05 -0.2352E-04 -0.1323E-04 -0.1176E-04 -0.4909E-06
     -1.597 -0.7159E-02 -0.1510E-03 -0.4529E-03 -0.7564E-04 -0.4861E-05 -0.2899E-04 -0.1632E-04 -0.1450E-04 -0.6086E-06
     -1.554 -0.2627E-02 -0.5618E-04 -0.1649E-03 -0.3016E-04 -0.2254E-05 -0.1058E-04 -0.6067E-05 -0.5384E-05 -0.2821E-06
     -1.511 -0.8418E-03 -0.2623E-04 -0.3887E-04 -0.3577E-04 -0.5833E-05 -0.2808E-05 -0.2814E-05 -0.2412E-05 -0.7290E-06
     -1.468 -0.2293E-02 -0.1085E-03 -0.4303E-04 -0.2148E-03 -0.3887E-04 -0.5027E-05 -0.1157E-04 -0.9657E-05 -0.4857E-05
     -1.425 -0.9724E-02 -0.4675E-03 -0.1697E-03 -0.9349E-03 -0.1695E-03 -0.2078E-04 -0.4987E-04 -0.4158E-04 -0.2118E-04
     -1.382 -0.2246E-01 -0.1080E-02 -0.3914E-03 -0.2161E-02 -0.3918E-03 -0.4799E-04 -0.1153E-03 -0.9610E-04 -0.4896E-04
     -1.339 -0.5783E-02 -0.2781E-03 -0.1008E-03 -0.5563E-03 -0.1009E-03 -0.1235E-04 -0.2967E-04 -0.2474E-04 -0.1260E-04
     -1.296  0.1155E+00  0.5554E-02  0.2012E-02  0.1111E-01  0.2014E-02  0.2467E-03  0.5925E-03  0.4940E-03  0.2517E-03
     -1.253  0.3331E+00  0.1602E-01  0.5805E-02  0.3204E-01  0.5810E-02  0.7117E-03  0.1709E-02  0.1425E-02  0.7260E-03
     -1.210  0.4550E+00  0.2188E-01  0.7928E-02  0.4377E-01  0.7935E-02  0.9720E-03  0.2334E-02  0.1946E-02  0.9917E-03
     -1.167  0.3381E+00  0.1626E-01  0.5891E-02  0.3252E-01  0.5896E-02  0.7222E-03  0.1735E-02  0.1446E-02  0.7368E-03
     -1.124  0.1199E+00  0.5768E-02  0.2090E-02  0.1154E-01  0.2092E-02  0.2562E-03  0.6153E-03  0.5130E-03  0.2614E-03
     -1.081 -0.4413E-02 -0.2123E-03 -0.7690E-04 -0.4245E-03 -0.7698E-04 -0.9429E-05 -0.2264E-04 -0.1888E-04 -0.9619E-05
     -1.038 -0.2266E-01 -0.1090E-02 -0.3948E-03 -0.2180E-02 -0.3952E-03 -0.4841E-04 -0.1163E-03 -0.9693E-04 -0.4939E-04
     -0.995 -0.9995E-02 -0.4807E-03 -0.1742E-03 -0.9614E-03 -0.1743E-03 -0.2135E-04 -0.5128E-04 -0.4275E-04 -0.2178E-04
     -0.952 -0.2318E-02 -0.1115E-03 -0.4039E-04 -0.2230E-03 -0.4043E-04 -0.4952E-05 -0.1189E-04 -0.9915E-05 -0.5052E-05
     -0.909 -0.3305E-03 -0.1590E-04 -0.5759E-05 -0.3179E-04 -0.5765E-05 -0.7061E-06 -0.1696E-05 -0.1414E-05 -0.7204E-06
     -0.866 -0.3052E-04 -0.1468E-05 -0.5317E-06 -0.2935E-05 -0.5322E-06 -0.6519E-07 -0.1566E-06 -0.1305E-06 -0.6651E-07
     -0.823 -0.1868E-05 -0.8984E-07 -0.3255E-07 -0.1797E-06 -0.3258E-07 -0.3990E-08 -0.9584E-08 -0.7991E-08 -0.4071E-08
     -0.780 -0.7679E-07 -0.3693E-08 -0.1338E-08 -0.7386E-08 -0.1339E-08 -0.1640E-09 -0.3940E-09 -0.3285E-09 -0.1674E-09
     -0.736 -0.2137E-08 -0.1028E-09 -0.3726E-10 -0.2056E-09 -0.3727E-10 -0.4571E-11 -0.1097E-10 -0.9162E-11 -0.4675E-11
     -0.693 -0.7450E-10 -0.2893E-11 -0.3550E-11 -0.9969E-11 -0.1307E-11 -0.6471E-12 -0.5589E-12 -0.1978E-11 -0.1527E-11
     -0.650 -0.1819E-08 -0.5094E-10 -0.1528E-09 -0.3237E-09 -0.3212E-10 -0.3005E-10 -0.1872E-10 -0.9634E-10 -0.7634E-10
     -0.607 -0.6607E-07 -0.1863E-08 -0.5590E-08 -0.1173E-07 -0.1168E-08 -0.1098E-08 -0.6786E-09 -0.3503E-08 -0.2755E-08
     -0.564 -0.1627E-05 -0.4629E-07 -0.1389E-06 -0.2879E-06 -0.2878E-07 -0.2722E-07 -0.1667E-07 -0.8634E-07 -0.6728E-07
     -0.521 -0.2698E-04 -0.7753E-06 -0.2326E-05 -0.4754E-05 -0.4775E-06 -0.4547E-06 -0.2755E-06 -0.1433E-05 -0.1104E-05
     -0.478 -0.2974E-03 -0.8653E-05 -0.2596E-04 -0.5213E-04 -0.5269E-05 -0.5060E-05 -0.3024E-05 -0.1581E-04 -0.1201E-04
     -0.435 -0.2132E-02 -0.6300E-04 -0.1890E-03 -0.3712E-03 -0.3782E-04 -0.3670E-04 -0.2156E-04 -0.1135E-03 -0.8465E-04
     -0.392 -0.9472E-02 -0.2859E-03 -0.8576E-03 -0.1634E-02 -0.1683E-03 -0.1657E-03 -0.9509E-04 -0.5049E-03 -0.3673E-03
     -0.349 -0.2265E-01 -0.7087E-03 -0.2126E-02 -0.3845E-02 -0.4037E-03 -0.4075E-03 -0.2244E-03 -0.1211E-02 -0.8413E-03
     -0.306 -0.8744E-02 -0.3627E-03 -0.1088E-02 -0.1257E-02 -0.1602E-03 -0.1969E-03 -0.7608E-04 -0.4805E-03 -0.1930E-03
     -0.263  0.1090E+00  0.3184E-02  0.9553E-02  0.1907E-01  0.1931E-02  0.1860E-02  0.1107E-02  0.5794E-02  0.4381E-02
     -0.220  0.3327E+00  0.1030E-01  0.3091E-01  0.5673E-01  0.5924E-02  0.5937E-02  0.3309E-02  0.1777E-01  0.1251E-01
     -0.177  0.4746E+00  0.1528E-01  0.4583E-01  0.7945E-01  0.8479E-02  0.8727E-02  0.4651E-02  0.2544E-01  0.1699E-01
     -0.134  0.3718E+00  0.1248E-01  0.3743E-01  0.6096E-01  0.6668E-02  0.7063E-02  0.3584E-02  0.2000E-01  0.1256E-01
     -0.091  0.1452E+00  0.5193E-02  0.1558E-01  0.2298E-01  0.2619E-02  0.2901E-02  0.1361E-02  0.7858E-02  0.4429E-02
     -0.048  0.3260E-02  0.2974E-03  0.9132E-03  0.3650E-04  0.6465E-04  0.1461E-03  0.7648E-05  0.2033E-03 -0.1778E-03
     -0.005 -0.2431E-01 -0.8486E-03 -0.2352E-02 -0.4052E-02 -0.4641E-03 -0.4718E-03 -0.2430E-03 -0.1306E-02 -0.8589E-03
      0.038 -0.1491E-01 -0.8678E-03 -0.1455E-02 -0.2393E-02 -0.4422E-03 -0.4193E-03 -0.1744E-03 -0.8159E-03 -0.4680E-03
      0.081 -0.1414E-01 -0.1713E-02 -0.1107E-02 -0.2270E-02 -0.8649E-03 -0.7234E-03 -0.2501E-03 -0.8018E-03 -0.4289E-03
      0.124 -0.1809E-01 -0.2547E-02 -0.1285E-02 -0.2923E-02 -0.1287E-02 -0.1054E-02 -0.3550E-03 -0.1036E-02 -0.5529E-03
      0.168  0.1937E-01  0.2777E-02  0.1350E-02  0.3128E-02  0.1405E-02  0.1148E-02  0.3857E-03  0.1109E-02  0.5929E-03
      0.211  0.1486E+00  0.2131E-01  0.1039E-01  0.2404E-01  0.1077E-01  0.8806E-02  0.2956E-02  0.8522E-02  0.4554E-02
      0.254  0.3068E+00  0.4401E-01  0.2146E-01  0.4963E-01  0.2219E-01  0.1819E-01  0.6089E-02  0.1760E-01  0.9402E-02
      0.297  0.3290E+00  0.4723E-01  0.2306E-01  0.5316E-01  0.2346E-01  0.1956E-01  0.6431E-02  0.1892E-01  0.1006E-01
      0.340  0.1847E+00  0.2668E-01  0.1318E-01  0.2954E-01  0.1159E-01  0.1123E-01  0.3149E-02  0.1083E-01  0.5561E-02
      0.383  0.2779E-01  0.4440E-02  0.2601E-02  0.3636E-02 -0.2470E-02  0.2370E-02 -0.7580E-03  0.2178E-02  0.5970E-03
      0.426 -0.2214E-01 -0.2950E-02 -0.1219E-02 -0.4015E-02 -0.3848E-02 -0.9502E-03 -0.1096E-02 -0.9780E-03 -0.8066E-03
      0.469  0.5042E-01  0.5192E-02  0.5344E-03  0.1211E-01  0.2407E-01 -0.3000E-03  0.6967E-02  0.2406E-03  0.2711E-02
      0.512  0.2001E+00  0.2219E-01  0.4453E-02  0.4496E-01  0.7959E-01  0.1373E-02  0.2300E-01  0.3023E-02  0.9850E-02
      0.555  0.2962E+00  0.3305E-01  0.6866E-02  0.6620E-01  0.1160E+00  0.2334E-02  0.3350E-01  0.4718E-02  0.1448E-01
      0.598  0.2342E+00  0.2615E-01  0.5457E-02  0.5231E-01  0.9151E-01  0.1875E-02  0.2644E-01  0.3755E-02  0.1144E-01
      0.641  0.9091E-01  0.1015E-01  0.2120E-02  0.2030E-01  0.3551E-01  0.7297E-03  0.1026E-01  0.1459E-02  0.4439E-02
      0.684  0.1222E-02  0.1364E-03  0.2847E-04  0.2729E-03  0.4773E-03  0.9789E-05  0.1379E-03  0.1959E-04  0.5965E-04
      0.727 -0.1527E-01 -0.1705E-02 -0.3560E-03 -0.3410E-02 -0.5963E-02 -0.1226E-03 -0.1723E-02 -0.2450E-03 -0.7454E-03
      0.770 -0.7320E-02 -0.8174E-03 -0.1707E-03 -0.1635E-02 -0.2859E-02 -0.5878E-04 -0.8259E-03 -0.1175E-03 -0.3574E-03
      0.813 -0.1788E-02 -0.1997E-03 -0.4170E-04 -0.3994E-03 -0.6985E-03 -0.1436E-04 -0.2018E-03 -0.2870E-04 -0.8731E-04
      0.856 -0.2666E-03 -0.2977E-04 -0.6226E-05 -0.5953E-04 -0.1041E-03 -0.2184E-05 -0.3015E-04 -0.4315E-05 -0.1307E-04
      0.899 -0.2809E-04 -0.3181E-05 -0.8502E-06 -0.6056E-05 -0.1030E-04 -0.1120E-05 -0.4652E-05 -0.1206E-05 -0.2496E-05
      0.942 -0.3648E-04 -0.4752E-05 -0.3625E-05 -0.5100E-05 -0.5023E-05 -0.1287E-04 -0.2496E-04 -0.1124E-04 -0.1754E-04
      0.985 -0.3284E-03 -0.4379E-04 -0.3405E-04 -0.4495E-04 -0.4588E-04 -0.1202E-03 -0.2318E-03 -0.1055E-03 -0.1625E-03
      1.029 -0.2025E-02 -0.2780E-03 -0.2128E-03 -0.2805E-03 -0.3336E-03 -0.7314E-03 -0.1412E-02 -0.6482E-03 -0.9801E-03
      1.072 -0.7842E-02 -0.1134E-02 -0.8444E-03 -0.1109E-02 -0.1669E-02 -0.2763E-02 -0.5351E-02 -0.2496E-02 -0.3638E-02
      1.115 -0.1671E-01 -0.2698E-02 -0.1899E-02 -0.2470E-02 -0.5440E-02 -0.5562E-02 -0.1084E-01 -0.5258E-02 -0.6986E-02
      1.158 -0.5735E-02 -0.2031E-02 -0.1059E-02 -0.1216E-02 -0.9209E-02 -0.6472E-03 -0.1554E-02 -0.1562E-02  0.6003E-03
      1.201  0.7474E-01  0.8966E-02  0.7241E-02  0.1023E-01  0.5051E-02  0.2837E-01  0.5471E-01  0.2435E-01  0.3955E-01
      1.244  0.2426E+00  0.3629E-01  0.2593E-01  0.3589E-01  0.6767E-01  0.8388E-01  0.1645E+00  0.7781E-01  0.1087E+00
      1.287  0.4129E+00  0.6962E-01  0.4705E-01  0.6334E-01  0.1685E+00  0.1332E+00  0.2666E+00  0.1301E+00  0.1631E+00
      1.330  0.4675E+00  0.8861E-01  0.5910E-01  0.7090E-01  0.2267E+00  0.1375E+00  0.2805E+00  0.1395E+00  0.1578E+00
      1.373  0.4110E+00  0.8951E-01  0.6275E-01  0.5545E-01  0.1907E+00  0.1082E+00  0.2067E+00  0.1103E+00  0.1125E+00
      1.416  0.3287E+00  0.7906E-01  0.6088E-01  0.3423E-01  0.1145E+00  0.9140E-01  0.1179E+00  0.8851E-01  0.8720E-01
      1.459  0.2301E+00  0.5344E-01  0.4579E-01  0.1750E-01  0.5859E-01  0.8985E-01  0.5597E-01  0.8329E-01  0.9014E-01
      1.502  0.1212E+00  0.2354E-01  0.2157E-01  0.7328E-02  0.2874E-01  0.8081E-01  0.1982E-01  0.7029E-01  0.8147E-01
      1.545  0.1032E+00  0.2455E-01  0.1016E-01  0.1204E-01  0.3431E-01  0.1064E+00  0.1776E-01  0.7578E-01  0.6644E-01
      1.588  0.2123E+00  0.6283E-01  0.1868E-01  0.3227E-01  0.8724E-01  0.2084E+00  0.5175E-01  0.1430E+00  0.8083E-01
      1.631  0.2979E+00  0.9068E-01  0.2826E-01  0.4627E-01  0.1500E+00  0.2945E+00  0.8725E-01  0.2235E+00  0.1004E+00
      1.674  0.2276E+00  0.6997E-01  0.2276E-01  0.3598E-01  0.1688E+00  0.2508E+00  0.8784E-01  0.2265E+00  0.7986E-01
      1.717  0.8751E-01  0.2619E-01  0.1011E-01  0.1366E-01  0.1475E+00  0.1309E+00  0.5544E-01  0.1553E+00  0.4743E-01
      1.760  0.2486E-01  0.1143E-02  0.5811E-02 -0.5383E-05  0.1423E+00  0.6390E-01  0.1583E-01  0.9412E-01  0.6473E-01
      1.803  0.4593E-01 -0.9251E-03  0.1081E-01 -0.1530E-02  0.1743E+00  0.7206E-01  0.6162E-02  0.8611E-01  0.1202E+00
      1.846  0.7664E-01  0.5133E-02  0.1731E-01  0.5469E-02  0.2020E+00  0.8952E-01  0.9169E-01  0.1065E+00  0.1371E+00
      1.889  0.8774E-01  0.1277E-01  0.2345E-01  0.1994E-01  0.2156E+00  0.8508E-01  0.2982E+00  0.1408E+00  0.9063E-01
      1.933  0.8714E-01  0.1910E-01  0.2970E-01  0.3391E-01  0.2419E+00  0.8273E-01  0.4848E+00  0.1861E+00  0.3888E-01
      1.976  0.8299E-01  0.2052E-01  0.3718E-01  0.3696E-01  0.2695E+00  0.1309E+00  0.4856E+00  0.2290E+00  0.4031E-01
      2.019  0.1020E+00  0.2077E-01  0.5425E-01  0.3401E-01  0.2835E+00  0.2857E+00  0.3692E+00  0.2954E+00  0.1097E+00
      2.062  0.1495E+00  0.2555E-01  0.7816E-01  0.3460E-01  0.2706E+00  0.4790E+00  0.2797E+00  0.3803E+00  0.1955E+00
      2.105  0.1731E+00  0.3324E-01  0.9054E-01  0.3677E-01  0.2221E+00  0.5178E+00  0.2242E+00  0.4107E+00  0.2053E+00
      2.148  0.1438E+00  0.3852E-01  0.8845E-01  0.3602E-01  0.1883E+00  0.3854E+00  0.1883E+00  0.4053E+00  0.1308E+00
      2.191  0.9068E-01  0.3479E-01  0.7802E-01  0.3087E-01  0.1899E+00  0.2695E+00  0.1719E+00  0.4196E+00  0.6029E-01
      2.234  0.4451E-01  0.2128E-01  0.5658E-01  0.2410E-01  0.1693E+00  0.2663E+00  0.1374E+00  0.3928E+00  0.5274E-01
      2.277  0.1783E-01  0.8178E-02  0.3062E-01  0.2157E-01  0.1097E+00  0.3116E+00  0.7820E-01  0.2872E+00  0.8487E-01
      2.320  0.7480E-02  0.2225E-02  0.1273E-01  0.1992E-01  0.5096E-01  0.2918E+00  0.2788E-01  0.1639E+00  0.9521E-01
      2.363  0.4365E-02  0.7319E-03  0.4401E-02  0.1263E-01  0.1768E-01  0.1837E+00  0.9794E-02  0.7357E-01  0.6080E-01
      2.406  0.1390E-01  0.2250E-02  0.4288E-02  0.5253E-02  0.2305E-01  0.1133E+00  0.4628E-01  0.4191E-01  0.2897E-01
      2.449  0.4193E-01  0.7218E-02  0.1173E-01  0.5345E-02  0.6801E-01  0.1606E+00  0.1353E+00  0.6601E-01  0.4198E-01
      2.492  0.6586E-01  0.1081E-01  0.1839E-01  0.9128E-02  0.1042E+00  0.2195E+00  0.1973E+00  0.8825E-01  0.7272E-01
      2.535  0.5798E-01  0.1018E-01  0.1765E-01  0.1001E-01  0.9000E-01  0.1846E+00  0.1576E+00  0.7040E-01  0.8338E-01
      2.578  0.3124E-01  0.1774E-01  0.2020E-01  0.9821E-02  0.9127E-01  0.1222E+00  0.7532E-01  0.6094E-01  0.9523E-01
      2.621  0.2017E-01  0.4546E-01  0.3913E-01  0.1266E-01  0.2045E+00  0.1353E+00  0.7679E-01  0.1247E+00  0.1274E+00
      2.664  0.2974E-01  0.7508E-01  0.6328E-01  0.1684E-01  0.3769E+00  0.2054E+00  0.1899E+00  0.2447E+00  0.1451E+00
      2.707  0.3644E-01  0.7734E-01  0.6813E-01  0.2221E-01  0.4545E+00  0.2582E+00  0.3413E+00  0.3337E+00  0.1618E+00
      2.750  0.2608E-01  0.5838E-01  0.5116E-01  0.3823E-01  0.4222E+00  0.2844E+00  0.4989E+00  0.3399E+00  0.2956E+00
      2.794  0.9078E-02  0.4665E-01  0.3332E-01  0.7122E-01  0.4153E+00  0.3293E+00  0.6916E+00  0.3126E+00  0.5922E+00
      2.837 -0.4119E-03  0.4505E-01  0.2499E-01  0.9810E-01  0.4481E+00  0.3645E+00  0.8103E+00  0.2908E+00  0.8238E+00
      2.880 -0.1811E-02  0.3540E-01  0.1748E-01  0.8429E-01  0.3850E+00  0.3030E+00  0.6698E+00  0.2273E+00  0.7419E+00
      2.923 -0.9518E-03  0.1626E-01  0.7326E-02  0.4052E-01  0.2446E+00  0.2027E+00  0.4008E+00  0.1349E+00  0.5322E+00
      2.966 -0.7907E-03  0.2319E-02  0.1028E-02  0.1109E-01  0.1834E+00  0.2050E+00  0.3136E+00  0.1031E+00  0.5243E+00
      3.009 -0.1176E-02  0.1156E-02  0.8315E-03  0.1266E-01  0.2073E+00  0.2799E+00  0.3989E+00  0.1322E+00  0.6276E+00
      3.052  0.3609E-03  0.1420E-01  0.9437E-02  0.3344E-01  0.2320E+00  0.3472E+00  0.4552E+00  0.1971E+00  0.6472E+00
      3.095  0.7503E-02  0.3920E-01  0.4139E-01  0.6292E-01  0.2648E+00  0.4986E+00  0.4810E+00  0.3803E+00  0.7287E+00
      3.138  0.1855E-01  0.5759E-01  0.9792E-01  0.8362E-01  0.2980E+00  0.7390E+00  0.5198E+00  0.6576E+00  0.9188E+00
      3.181  0.2343E-01  0.5048E-01  0.1352E+00  0.7319E-01  0.2481E+00  0.8284E+00  0.4502E+00  0.7670E+00  0.8804E+00
      3.224  0.1653E-01  0.3311E-01  0.1147E+00  0.4351E-01  0.1465E+00  0.7278E+00  0.2773E+00  0.6313E+00  0.5220E+00
      3.267  0.6015E-02  0.3595E-01  0.7097E-01  0.3094E-01  0.1641E+00  0.6777E+00  0.2313E+00  0.5561E+00  0.2229E+00
      3.310  0.1169E-02  0.5442E-01  0.5414E-01  0.3960E-01  0.3317E+00  0.6834E+00  0.3646E+00  0.6892E+00  0.1886E+00