    8    8    1    1
  0.1181995E+02  0.4970986E-09  0.4970986E-09  0.4970986E-09  0.5000000E-15
  1.000000000000000E-004
  CAR 
 unknown system                          
     64      6     44
 
  0.1250000E+00  0.1250000E+00  0.1250000E+00  0.1250000E+00
    1       -1.801706
    2        1.247594
    3        1.247596
    4        1.247605
    5        1.811306
    6        1.811309
    7        1.811318
    8        1.933829
    9        1.933832
   10        2.966513
   11        2.966540
   12        2.966541
   13        3.124714
   14        3.124720
   15        3.124746
   16        3.743817
   17        3.743843
   18        3.817230
   19        3.817233
   20        3.817264
   21        3.998408
   22        3.998450
   23        3.998463
   24        4.535220
   25        5.068079
   26        5.201902
   27        5.201968
   28        5.201971
   29        5.338939
   30        5.338957
   31        5.361788
   32        5.361795
   33        5.361842
   34        5.576687
   35        5.576699
   36        5.576701
   37        6.095872
   38        6.095972
   39        6.129809
   40        6.129894
   41        6.129905
   42        6.797527
   43        6.797532
   44        6.797618
 
  0.3750000E+00  0.1250000E+00  0.1250000E+00  0.1875000E+00
    1       -0.198508
    2       -0.198494
    3        1.409285
    4        1.409296
    5        2.291534
    6        2.291541
    7        2.486568
    8        2.486570
    9        2.653278
   10        2.653283
   11        2.831058
   12        2.831059
   13        3.024675
   14        3.024684
   15        3.159252
   16        3.159257
   17        3.326091
   18        3.326104
   19        3.329844
   20        3.329846
   21        3.511790
   22        3.511919
   23        3.799515
   24        3.799659
   25        5.246619
   26        5.246655
   27        5.324108
   28        5.324109
   29        5.324715
   30        5.324911
   31        5.364720
   32        5.364730
   33        5.466425
   34        5.466438
   35        5.514156
   36        5.514374
   37        5.591220
   38        5.591229
   39        5.801476
   40        5.801486
   41        6.183908
   42        6.183924
   43        6.997430
   44        6.997438
 
 -0.1250000E+00  0.1250000E+00  0.1250000E+00  0.9375000E-01
    1       -2.405529
    2        1.311097
    3        1.311099
    4        1.311213
    5        1.311215
    6        1.460168
    7        1.460368
    8        1.674620
    9        1.694908
   10        2.829898
   11        2.830065
   12        3.000862
   13        3.000865
   14        3.000996
   15        3.001004
   16        3.949117
   17        3.949350
   18        4.036365
   19        4.616023
   20        4.616036
   21        4.616723
   22        4.616728
   23        4.953315
   24        4.953392
   25        5.262947
   26        5.310669
   27        5.310680
   28        5.311032
   29        5.311036
   30        5.425508
   31        5.426064
   32        5.473581
   33        5.617365
   34        5.618623
   35        6.052078
   36        6.052485
   37        6.226695
   38        6.454597
   39        6.454614
   40        6.454847
   41        6.454901
   42        6.498133
   43        6.498142
   44        6.498708
 
 -0.3750000E+00  0.3750000E+00  0.1250000E+00  0.3750000E+00
    1       -1.231053
    2        0.538108
    3        1.611608
    4        1.611667
    5        1.922409
    6        2.036307
    7        2.066820
    8        2.067175
    9        2.198377
   10        2.837441
   11        2.837612
   12        3.142234
   13        3.142354
   14        3.173099
   15        3.273428
   16        3.624116
   17        3.624637
   18        3.658273
   19        3.658620
   20        3.676806
   21        3.738164
   22        3.798516
   23        3.865132
   24        4.646202
   25        4.882652
   26        4.973201
   27        4.994931
   28        5.084549
   29        5.084622
   30        5.122886
   31        5.251024
   32        5.455839
   33        5.456493
   34        5.567573
   35        5.647823
   36        5.666635
   37        5.667694
   38        5.706889
   39        5.844668
   40        5.845396
   41        6.260148
   42        6.375048
   43        7.220385
   44        7.220732
 
 -0.3750000E+00 -0.3750000E+00  0.1250000E+00  0.1250000E+00
    1        0.258843
    2        0.258865
    3        0.258870
    4        2.159889
    5        2.159899
    6        2.159909
    7        2.451685
    8        2.688883
    9        2.714321
   10        2.714325
   11        2.714339
   12        2.799885
   13        2.800043
   14        3.111000
   15        3.111124
   16        3.485681
   17        3.485768
   18        3.485812
   19        3.630537
   20        3.630566
   21        3.630578
   22        4.012753
   23        4.012800
   24        4.012984
   25        4.820165
   26        4.820208
   27        4.820229
   28        5.011956
   29        5.012104
   30        5.012171
   31        5.416997
   32        5.417045
   33        5.417249
   34        5.576999
   35        5.577037
   36        5.595724
   37        5.595785
   38        5.842344
   39        5.842362
   40        5.842370
   41        5.958418
   42        5.958470
   43        5.958532
   44        8.509142
 
 -0.3750000E+00  0.3750000E+00  0.3750000E+00  0.9375000E-01
    1       -0.177593
    2        1.307063
    3        1.307084
    4        1.307273
    5        1.307279
    6        1.933367
    7        2.619908
    8        2.620538
    9        2.712745
   10        2.744460
   11        2.744607
   12        3.288860
   13        3.288978
   14        3.346192
   15        3.346197
   16        3.346865
   17        3.346865
   18        3.935702
   19        3.935715
   20        3.936148
   21        3.936148
   22        4.077986
   23        4.078205
   24        4.202610
   25        4.632819
   26        4.632823
   27        4.633363
   28        4.633365
   29        4.666836
   30        4.827258
   31        4.827532
   32        5.530543
   33        5.530544
   34        5.531087
   35        5.531094
   36        5.571586
   37        5.610315
   38        5.611388
   39        5.645095
   40        5.646357
   41        5.885500
   42        6.504152
   43        6.504787
   44        6.505118
