Automatically generated mesh
       6
Reciprocal lattice
    0.12500000000000    0.12500000000000    0.12500000000000             8
    0.37500000000000    0.12500000000000    0.12500000000000            12
   -0.12500000000000    0.12500000000000    0.12500000000000             6
   -0.37500000000000    0.37500000000000    0.12500000000000            24
   -0.37500000000000   -0.37500000000000    0.12500000000000             8
   -0.37500000000000    0.37500000000000    0.37500000000000             6
