       N       E                     dE             d eps       ncg     rms          rms(c)
DAV:   1    -0.610210201422E+02   -0.61021E+02   -0.12994E-05   300   0.325E-02    0.482E-02
DAV:   2    -0.610231879548E+02   -0.21678E-02   -0.28209E-03   884   0.634E-01    0.104E+00
DAV:   3    -0.610209539526E+02    0.22340E-02   -0.41201E-03   860   0.613E-01    0.763E-02
DAV:   4    -0.610210127719E+02   -0.58819E-04   -0.53174E-05   288   0.122E-01
   1 F= -.61021013E+02 E0= -.61023864E+02  d E =0.855448E-02
