PROCAR lm decomposed
# of k-points:    6         # of bands:  44         # of ions:   8

 k-point    1 :    0.12500000 0.12500000 0.12500000     weight = 0.12500000

band   1 # energy   -1.80170565 # occ.  2.00000000
 
ion      s     py     pz     px    dxy    dyz    dz2    dxz    dx2    tot
  1  0.079  0.002  0.005  0.001  0.000  0.000  0.000  0.000  0.000  0.087
  2  0.079  0.002  0.005  0.001  0.000  0.000  0.000  0.000  0.000  0.087
  3  0.079  0.002  0.005  0.001  0.000  0.000  0.000  0.000  0.000  0.087
  4  0.079  0.002  0.005  0.001  0.000  0.000  0.000  0.000  0.000  0.087
  5  0.079  0.002  0.005  0.001  0.000  0.000  0.000  0.000  0.000  0.087
  6  0.079  0.002  0.005  0.001  0.000  0.000  0.000  0.000  0.000  0.087
  7  0.079  0.002  0.005  0.001  0.000  0.000  0.000  0.000  0.000  0.087
  8  0.079  0.002  0.005  0.001  0.000  0.000  0.000  0.000  0.000  0.087
tot  0.634  0.013  0.040  0.007  0.000  0.003  0.001  0.001  0.000  0.699
 
band   2 # energy    1.24759436 # occ.  2.00000000
 
ion      s     py     pz     px    dxy    dyz    dz2    dxz    dx2    tot
  1  0.000  0.009  0.003  0.000  0.000  0.019  0.042  0.000  0.014  0.087
  2  0.000  0.009  0.003  0.000  0.000  0.019  0.042  0.000  0.014  0.087
  3  0.059  0.002  0.006  0.001  0.000  0.012  0.020  0.000  0.013  0.114
  4  0.059  0.002  0.006  0.001  0.000  0.012  0.020  0.000  0.013  0.114
  5  0.059  0.002  0.006  0.001  0.000  0.012  0.020  0.000  0.013  0.114
  6  0.059  0.002  0.006  0.001  0.000  0.012  0.020  0.000  0.013  0.114
  7  0.000  0.009  0.003  0.000  0.000  0.019  0.042  0.000  0.014  0.087
  8  0.000  0.009  0.003  0.000  0.000  0.019  0.042  0.000  0.014  0.087
tot  0.238  0.045  0.035  0.006  0.000  0.124  0.247  0.001  0.110  0.807
 
band   3 # energy    1.24759618 # occ.  2.00000000
 
ion      s     py     pz     px    dxy    dyz    dz2    dxz    dx2    tot
  1  0.043  0.002  0.005  0.003  0.001  0.010  0.021  0.002  0.019  0.107
  2  0.074  0.002  0.006  0.000  0.000  0.014  0.017  0.000  0.008  0.121
  3  0.001  0.009  0.003  0.000  0.000  0.021  0.044  0.001  0.008  0.088
  4  0.001  0.009  0.003  0.000  0.000  0.016  0.037  0.001  0.020  0.088
  5  0.001  0.009  0.003  0.000  0.000  0.016  0.037  0.001  0.020  0.088
  6  0.001  0.009  0.003  0.000  0.000  0.021  0.044  0.001  0.008  0.088
  7  0.074  0.002  0.006  0.000  0.000  0.014  0.017  0.000  0.008  0.121
  8  0.043  0.002  0.005  0.003  0.001  0.010  0.021  0.002  0.019  0.107
tot  0.238  0.044  0.034  0.008  0.003  0.120  0.240  0.009  0.111  0.807
 
band   4 # energy    1.24760492 # occ.  2.00000000
 
ion      s     py     pz     px    dxy    dyz    dz2    dxz    dx2    tot
  1  0.046  0.000  0.001  0.009  0.009  0.005  0.000  0.026  0.012  0.108
  2  0.015  0.000  0.000  0.012  0.010  0.001  0.005  0.029  0.023  0.094
  3  0.029  0.000  0.001  0.010  0.009  0.000  0.000  0.027  0.024  0.100
  4  0.029  0.001  0.000  0.010  0.009  0.005  0.007  0.028  0.012  0.100
  5  0.029  0.001  0.000  0.010  0.009  0.005  0.007  0.028  0.012  0.100
  6  0.029  0.000  0.001  0.010  0.009  0.000  0.000  0.027  0.024  0.100
  7  0.015  0.000  0.000  0.012  0.010  0.001  0.005  0.029  0.023  0.094
  8  0.046  0.000  0.001  0.009  0.009  0.005  0.000  0.026  0.012  0.108
tot  0.238  0.002  0.003  0.082  0.073  0.022  0.025  0.220  0.143  0.807
 
band   5 # energy    1.81130586 # occ.  2.00000000
 
ion      s     py     pz     px    dxy    dyz    dz2    dxz    dx2    tot
  1  0.029  0.002  0.006  0.001  0.006  0.001  0.009  0.017  0.017  0.088
  2  0.019  0.001  0.004  0.001  0.007  0.002  0.007  0.022  0.038  0.100
  3  0.000  0.000  0.000  0.000  0.082  0.000  0.003  0.031  0.004  0.121
  4  0.000  0.000  0.000  0.000  0.088  0.005  0.003  0.026  0.000  0.121
  5  0.000  0.000  0.000  0.000  0.088  0.005  0.003  0.026  0.000  0.121
  6  0.000  0.000  0.000  0.000  0.082  0.000  0.003  0.031  0.004  0.121
  7  0.019  0.001  0.004  0.001  0.007  0.002  0.007  0.022  0.038  0.101
  8  0.029  0.002  0.006  0.001  0.006  0.001  0.009  0.017  0.017  0.088
tot  0.097  0.007  0.020  0.004  0.365  0.015  0.045  0.191  0.118  0.862
 
band   6 # energy    1.81130882 # occ.  2.00000000
 
ion      s     py     pz     px    dxy    dyz    dz2    dxz    dx2    tot
  1  0.000  0.000  0.000  0.000  0.087  0.001  0.003  0.029  0.001  0.122
  2  0.000  0.000  0.000  0.000  0.087  0.001  0.003  0.029  0.001  0.122
  3  0.024  0.002  0.005  0.001  0.007  0.000  0.008  0.020  0.027  0.094
  4  0.024  0.002  0.005  0.001  0.007  0.000  0.008  0.020  0.027  0.094
  5  0.024  0.002  0.005  0.001  0.007  0.000  0.008  0.020  0.027  0.094
  6  0.024  0.002  0.005  0.001  0.007  0.000  0.008  0.020  0.027  0.094
  7  0.000  0.000  0.000  0.000  0.087  0.001  0.003  0.029  0.001  0.122
  8  0.000  0.000  0.000  0.000  0.087  0.001  0.003  0.029  0.001  0.121
tot  0.097  0.007  0.020  0.004  0.375  0.006  0.046  0.195  0.113  0.862
 
band   7 # energy    1.81131781 # occ.  2.00000000
 
ion      s     py     pz     px    dxy    dyz    dz2    dxz    dx2    tot
  1  0.007  0.001  0.002  0.000  0.002  0.045  0.000  0.005  0.051  0.114
  2  0.018  0.001  0.004  0.000  0.000  0.045  0.002  0.001  0.030  0.101
  3  0.012  0.001  0.003  0.000  0.006  0.047  0.000  0.001  0.038  0.108
  4  0.012  0.001  0.003  0.000  0.000  0.043  0.001  0.006  0.042  0.108
  5  0.012  0.001  0.003  0.000  0.000  0.042  0.001  0.006  0.042  0.108
  6  0.012  0.001  0.003  0.000  0.006  0.047  0.000  0.001  0.038  0.108
  7  0.018  0.001  0.004  0.000  0.000  0.045  0.002  0.001  0.030  0.101
  8  0.007  0.001  0.002  0.000  0.002  0.045  0.000  0.005  0.051  0.114
tot  0.097  0.007  0.022  0.002  0.017  0.360  0.006  0.026  0.325  0.862
 
band   8 # energy    1.93382869 # occ.  2.00000000
 
ion      s     py     pz     px    dxy    dyz    dz2    dxz    dx2    tot
  1  0.000  0.003  0.001  0.000  0.058  0.007  0.015  0.019  0.005  0.107
  2  0.000  0.003  0.001  0.000  0.058  0.007  0.015  0.019  0.005  0.107
  3  0.000  0.003  0.001  0.000  0.058  0.007  0.015  0.019  0.005  0.107
  4  0.000  0.003  0.001  0.000  0.058  0.007  0.015  0.019  0.005  0.107
  5  0.000  0.003  0.001  0.000  0.058  0.007  0.015  0.019  0.005  0.107
  6  0.000  0.003  0.001  0.000  0.058  0.007  0.015  0.019  0.005  0.107
  7  0.000  0.003  0.001  0.000  0.058  0.007  0.015  0.019  0.005  0.107
  8  0.000  0.003  0.001  0.000  0.058  0.007  0.015  0.019  0.005  0.107
tot  0.000  0.021  0.007  0.000  0.465  0.052  0.117  0.155  0.039  0.857
 
band   9 # energy    1.93383250 # occ.  2.00000000
 
ion      s     py     pz     px    dxy    dyz    dz2    dxz    dx2    tot
  1  0.000  0.000  0.000  0.003  0.016  0.028  0.005  0.049  0.005  0.107
  2  0.000  0.000  0.000  0.003  0.016  0.028  0.005  0.049  0.005  0.107
  3  0.000  0.000  0.000  0.003  0.016  0.028  0.005  0.049  0.005  0.107
  4  0.000  0.000  0.000  0.003  0.016  0.028  0.005  0.049  0.005  0.107
  5  0.000  0.000  0.000  0.003  0.016  0.028  0.005  0.049  0.005  0.107
  6  0.000  0.000  0.000  0.003  0.016  0.028  0.005  0.049  0.005  0.107
  7  0.000  0.000  0.000  0.003  0.016  0.028  0.005  0.049  0.005  0.107
  8  0.000  0.000  0.000  0.003  0.016  0.028  0.005  0.049  0.005  0.107
tot  0.000  0.001  0.002  0.025  0.131  0.223  0.039  0.394  0.041  0.857
 
band  10 # energy    2.96651326 # occ.  2.00000000
 
ion      s     py     pz     px    dxy    dyz    dz2    dxz    dx2    tot
  1  0.000  0.001  0.000  0.000  0.035  0.017  0.037  0.012  0.012  0.114
  2  0.000  0.001  0.000  0.000  0.038  0.018  0.040  0.013  0.013  0.122
  3  0.000  0.001  0.000  0.000  0.036  0.018  0.040  0.012  0.011  0.118
  4  0.000  0.001  0.000  0.000  0.037  0.016  0.037  0.012  0.015  0.119
  5  0.000  0.001  0.000  0.000  0.037  0.016  0.037  0.012  0.015  0.118
  6  0.000  0.001  0.000  0.000  0.036  0.018  0.040  0.012  0.011  0.119
  7  0.000  0.001  0.000  0.000  0.038  0.018  0.040  0.013  0.013  0.122
  8  0.000  0.001  0.000  0.000  0.035  0.017  0.037  0.012  0.012  0.114
tot  0.000  0.005  0.002  0.000  0.293  0.137  0.309  0.098  0.103  0.947
 
band  11 # energy    2.96654025 # occ.  2.00000000
 
ion      s     py     pz     px    dxy    dyz    dz2    dxz    dx2    tot
  1  0.000  0.000  0.000  0.000  0.020  0.009  0.021  0.007  0.007  0.063
  2  0.000  0.000  0.000  0.000  0.017  0.008  0.018  0.006  0.006  0.055
  3  0.000  0.000  0.000  0.001  0.001  0.013  0.018  0.002  0.143  0.178
  4  0.000  0.000  0.000  0.001  0.000  0.014  0.021  0.002  0.139  0.178
  5  0.000  0.000  0.000  0.001  0.000  0.014  0.021  0.002  0.139  0.178
  6  0.000  0.000  0.000  0.001  0.001  0.013  0.018  0.002  0.143  0.178
  7  0.000  0.000  0.000  0.000  0.017  0.008  0.018  0.006  0.006  0.055
  8  0.000  0.000  0.000  0.000  0.020  0.009  0.021  0.007  0.007  0.063
tot  0.000  0.001  0.001  0.005  0.076  0.089  0.155  0.032  0.589  0.947
 
band  12 # energy    2.96654106 # occ.  2.00000000
 
ion      s     py     pz     px    dxy    dyz    dz2    dxz    dx2    tot
  1  0.000  0.000  0.000  0.001  0.001  0.014  0.019  0.002  0.141  0.178
  2  0.000  0.000  0.000  0.001  0.001  0.014  0.019  0.002  0.141  0.178
  3  0.000  0.000  0.000  0.000  0.018  0.009  0.019  0.006  0.006  0.059
  4  0.000  0.000  0.000  0.000  0.018  0.009  0.019  0.006  0.006  0.059
  5  0.000  0.000  0.000  0.000  0.018  0.009  0.019  0.006  0.006  0.059
  6  0.000  0.000  0.000  0.000  0.018  0.009  0.019  0.006  0.006  0.059
  7  0.000  0.000  0.000  0.001  0.001  0.014  0.019  0.002  0.141  0.178
  8  0.000  0.000  0.000  0.001  0.001  0.014  0.019  0.002  0.141  0.178
tot  0.000  0.001  0.001  0.005  0.076  0.089  0.154  0.032  0.589  0.947
 
band  13 # energy    3.12471401 # occ.  2.00000000
 
ion      s     py     pz     px    dxy    dyz    dz2    dxz    dx2    tot
  1  0.000  0.000  0.000  0.000  0.004  0.016  0.036  0.001  0.012  0.071
  2  0.000  0.000  0.000  0.000  0.004  0.016  0.036  0.001  0.012  0.071
  3  0.000  0.001  0.002  0.001  0.018  0.065  0.015  0.054  0.007  0.164
  4  0.000  0.001  0.002  0.001  0.018  0.066  0.015  0.054  0.007  0.164
  5  0.000  0.001  0.002  0.001  0.018  0.065  0.015  0.054  0.007  0.164
  6  0.000  0.001  0.002  0.001  0.018  0.066  0.015  0.054  0.007  0.164
  7  0.000  0.000  0.000  0.000  0.004  0.016  0.036  0.001  0.012  0.071
  8  0.000  0.000  0.000  0.000  0.004  0.016  0.036  0.001  0.012  0.071
tot  0.002  0.004  0.010  0.004  0.090  0.327  0.204  0.222  0.078  0.940
 
band  14 # energy    3.12472019 # occ.  2.00000000
 
ion      s     py     pz     px    dxy    dyz    dz2    dxz    dx2    tot
  1  0.000  0.001  0.002  0.001  0.016  0.048  0.006  0.048  0.015  0.137
  2  0.001  0.001  0.003  0.001  0.019  0.080  0.026  0.056  0.002  0.188
  3  0.000  0.000  0.000  0.000  0.005  0.009  0.053  0.001  0.005  0.073
  4  0.000  0.000  0.000  0.000  0.004  0.025  0.020  0.002  0.022  0.073
  5  0.000  0.000  0.000  0.000  0.004  0.025  0.020  0.002  0.022  0.073
  6  0.000  0.000  0.000  0.000  0.005  0.009  0.053  0.001  0.005  0.073
  7  0.001  0.001  0.003  0.001  0.019  0.080  0.026  0.056  0.002  0.188
  8  0.000  0.001  0.002  0.001  0.016  0.048  0.006  0.048  0.015  0.136
tot  0.002  0.004  0.010  0.004  0.086  0.322  0.211  0.214  0.087  0.940
 
band  15 # energy    3.12474621 # occ.  2.00000000
 
ion      s     py     pz     px    dxy    dyz    dz2    dxz    dx2    tot
  1  0.000  0.001  0.002  0.000  0.002  0.043  0.058  0.007  0.031  0.145
  2  0.000  0.000  0.001  0.000  0.000  0.011  0.037  0.000  0.044  0.093
  3  0.000  0.001  0.001  0.000  0.000  0.033  0.032  0.002  0.046  0.116
  4  0.000  0.000  0.002  0.000  0.001  0.017  0.065  0.001  0.029  0.116
  5  0.000  0.000  0.002  0.000  0.001  0.017  0.065  0.001  0.029  0.116
  6  0.000  0.001  0.001  0.000  0.000  0.033  0.032  0.002  0.046  0.116
  7  0.000  0.000  0.001  0.000  0.000  0.011  0.037  0.000  0.044  0.093
  8  0.000  0.001  0.002  0.000  0.002  0.043  0.058  0.007  0.031  0.145
tot  0.002  0.004  0.013  0.000  0.008  0.210  0.381  0.021  0.301  0.940
 
band  16 # energy    3.74381652 # occ.  2.00000000
 
ion      s     py     pz     px    dxy    dyz    dz2    dxz    dx2    tot
  1  0.000  0.000  0.000  0.000  0.019  0.024  0.054  0.006  0.018  0.121
  2  0.000  0.000  0.000  0.000  0.019  0.024  0.054  0.006  0.018  0.121
  3  0.000  0.000  0.000  0.000  0.019  0.024  0.054  0.006  0.018  0.121
  4  0.000  0.000  0.000  0.000  0.019  0.024  0.054  0.006  0.018  0.121
  5  0.000  0.000  0.000  0.000  0.019  0.024  0.054  0.006  0.018  0.121
  6  0.000  0.000  0.000  0.000  0.019  0.024  0.054  0.006  0.018  0.121
  7  0.000  0.000  0.000  0.000  0.019  0.024  0.054  0.006  0.018  0.121
  8  0.000  0.000  0.000  0.000  0.019  0.024  0.054  0.006  0.018  0.121
tot  0.000  0.002  0.001  0.000  0.150  0.190  0.429  0.050  0.143  0.965
 
band  17 # energy    3.74384310 # occ.  2.00000000
 
ion      s     py     pz     px    dxy    dyz    dz2    dxz    dx2    tot
  1  0.000  0.000  0.000  0.000  0.003  0.003  0.018  0.008  0.088  0.121
  2  0.000  0.000  0.000  0.000  0.003  0.003  0.018  0.008  0.088  0.121
  3  0.000  0.000  0.000  0.000  0.003  0.003  0.018  0.008  0.088  0.121
  4  0.000  0.000  0.000  0.000  0.003  0.003  0.018  0.008  0.088  0.121
  5  0.000  0.000  0.000  0.000  0.003  0.003  0.018  0.008  0.088  0.121
  6  0.000  0.000  0.000  0.000  0.003  0.003  0.018  0.008  0.088  0.121
  7  0.000  0.000  0.000  0.000  0.003  0.003  0.018  0.008  0.088  0.121
  8  0.000  0.000  0.000  0.000  0.003  0.003  0.018  0.008  0.088  0.121
tot  0.000  0.000  0.000  0.003  0.023  0.025  0.143  0.068  0.704  0.965
 
band  18 # energy    3.81723024 # occ.  2.00000000
 
ion      s     py     pz     px    dxy    dyz    dz2    dxz    dx2    tot
  1  0.000  0.001  0.003  0.033  0.021  0.016  0.017  0.062  0.006  0.159
  2  0.000  0.001  0.003  0.033  0.021  0.016  0.017  0.062  0.006  0.159
  3  0.000  0.009  0.003  0.000  0.008  0.007  0.017  0.003  0.006  0.053
  4  0.000  0.009  0.003  0.000  0.008  0.007  0.017  0.003  0.006  0.053
  5  0.000  0.009  0.003  0.000  0.008  0.007  0.017  0.003  0.006  0.053
  6  0.000  0.009  0.003  0.000  0.008  0.007  0.017  0.003  0.006  0.053
  7  0.000  0.001  0.003  0.033  0.021  0.016  0.017  0.062  0.006  0.159
  8  0.000  0.001  0.003  0.033  0.021  0.016  0.017  0.062  0.006  0.159
tot  0.000  0.042  0.025  0.133  0.115  0.094  0.133  0.259  0.046  0.847
 
band  19 # energy    3.81723277 # occ.  2.00000000
 
ion      s     py     pz     px    dxy    dyz    dz2    dxz    dx2    tot
  1  0.000  0.011  0.004  0.000  0.010  0.009  0.019  0.003  0.006  0.062
  2  0.000  0.008  0.003  0.000  0.007  0.006  0.014  0.002  0.005  0.044
  3  0.000  0.002  0.003  0.033  0.019  0.018  0.014  0.064  0.007  0.159
  4  0.000  0.001  0.004  0.033  0.023  0.014  0.019  0.060  0.005  0.159
  5  0.000  0.001  0.004  0.033  0.023  0.014  0.019  0.060  0.005  0.159
  6  0.000  0.002  0.003  0.033  0.019  0.018  0.014  0.064  0.007  0.159
  7  0.000  0.008  0.003  0.000  0.007  0.006  0.014  0.002  0.005  0.044
  8  0.000  0.011  0.004  0.000  0.010  0.009  0.019  0.003  0.006  0.062
tot  0.000  0.042  0.025  0.133  0.115  0.094  0.134  0.258  0.046  0.847
 
band  20 # energy    3.81726358 # occ.  2.00000000
 
ion      s     py     pz     px    dxy    dyz    dz2    dxz    dx2    tot
  1  0.000  0.017  0.006  0.000  0.015  0.014  0.030  0.005  0.010  0.097
  2  0.000  0.020  0.007  0.000  0.018  0.016  0.036  0.006  0.012  0.114
  3  0.000  0.018  0.007  0.000  0.018  0.013  0.036  0.003  0.010  0.106
  4  0.000  0.019  0.006  0.000  0.014  0.017  0.030  0.008  0.012  0.106
  5  0.000  0.019  0.006  0.000  0.014  0.017  0.030  0.008  0.012  0.106
  6  0.000  0.018  0.007  0.000  0.018  0.013  0.036  0.003  0.010  0.106
  7  0.000  0.020  0.007  0.000  0.018  0.016  0.036  0.006  0.012  0.114
  8  0.000  0.017  0.006  0.000  0.015  0.014  0.030  0.005  0.010  0.097
tot  0.000  0.149  0.050  0.000  0.130  0.118  0.266  0.044  0.089  0.847
 
band  21 # energy    3.99840759 # occ.  2.00000000
 
ion      s     py     pz     px    dxy    dyz    dz2    dxz    dx2    tot
  1  0.013  0.006  0.019  0.018  0.015  0.025  0.015  0.044  0.001  0.157
  2  0.003  0.001  0.002  0.018  0.009  0.001  0.001  0.027  0.000  0.060
  3  0.007  0.001  0.011  0.018  0.007  0.006  0.009  0.040  0.000  0.099
  4  0.007  0.006  0.005  0.018  0.017  0.011  0.003  0.030  0.001  0.099
  5  0.007  0.006  0.005  0.018  0.017  0.011  0.003  0.030  0.001  0.099
  6  0.007  0.001  0.011  0.018  0.007  0.006  0.009  0.041  0.000  0.099
  7  0.003  0.001  0.002  0.018  0.009  0.001  0.001  0.027  0.000  0.060
  8  0.013  0.006  0.019  0.018  0.015  0.025  0.015  0.044  0.001  0.157
tot  0.059  0.027  0.073  0.143  0.097  0.087  0.057  0.284  0.005  0.831
 
band  22 # energy    3.99845046 # occ.  2.00000000
 
ion      s     py     pz     px    dxy    dyz    dz2    dxz    dx2    tot
  1  0.009  0.008  0.025  0.001  0.000  0.049  0.025  0.001  0.000  0.119
  2  0.019  0.014  0.042  0.002  0.006  0.073  0.040  0.019  0.001  0.216
  3  0.000  0.012  0.001  0.001  0.014  0.005  0.003  0.000  0.002  0.040
  4  0.000  0.007  0.006  0.001  0.004  0.001  0.009  0.010  0.001  0.040
  5  0.000  0.007  0.006  0.001  0.004  0.001  0.009  0.010  0.001  0.040
  6  0.000  0.012  0.001  0.001  0.014  0.005  0.003  0.000  0.002  0.040
  7  0.019  0.014  0.042  0.002  0.006  0.073  0.040  0.019  0.001  0.216
  8  0.009  0.008  0.025  0.001  0.000  0.049  0.025  0.001  0.000  0.119
tot  0.059  0.084  0.149  0.010  0.049  0.255  0.153  0.061  0.010  0.831
 
band  23 # energy    3.99846275 # occ.  2.00000000
 
ion      s     py     pz     px    dxy    dyz    dz2    dxz    dx2    tot
  1  0.000  0.010  0.003  0.000  0.009  0.002  0.006  0.003  0.002  0.035
  2  0.000  0.010  0.003  0.000  0.009  0.002  0.006  0.003  0.002  0.035
  3  0.015  0.012  0.035  0.000  0.003  0.064  0.035  0.008  0.001  0.172
  4  0.015  0.012  0.035  0.000  0.003  0.064  0.035  0.008  0.001  0.173
  5  0.015  0.012  0.035  0.000  0.003  0.064  0.035  0.008  0.001  0.172
  6  0.015  0.012  0.035  0.000  0.003  0.064  0.035  0.008  0.001  0.173
  7  0.000  0.010  0.003  0.000  0.009  0.002  0.006  0.003  0.002  0.035
  8  0.000  0.010  0.003  0.000  0.009  0.002  0.006  0.003  0.002  0.035
tot  0.059  0.088  0.155  0.000  0.046  0.268  0.160  0.044  0.011  0.831
 
band  24 # energy    4.53522012 # occ.  2.00000000
 
ion      s     py     pz     px    dxy    dyz    dz2    dxz    dx2    tot
  1  0.000  0.000  0.001  0.000  0.009  0.054  0.030  0.027  0.001  0.122
  2  0.000  0.000  0.001  0.000  0.009  0.053  0.030  0.027  0.001  0.121
  3  0.000  0.000  0.001  0.000  0.009  0.053  0.030  0.027  0.001  0.121
  4  0.000  0.000  0.001  0.000  0.009  0.054  0.030  0.027  0.001  0.122
  5  0.000  0.000  0.001  0.000  0.009  0.053  0.030  0.027  0.001  0.121
  6  0.000  0.000  0.001  0.000  0.009  0.054  0.030  0.027  0.001  0.122
  7  0.000  0.000  0.001  0.000  0.009  0.054  0.030  0.027  0.001  0.122
  8  0.000  0.000  0.001  0.000  0.009  0.053  0.030  0.027  0.001  0.121
tot  0.001  0.002  0.006  0.001  0.071  0.428  0.241  0.214  0.009  0.973
 
band  25 # energy    5.06807887 # occ.  2.00000117
 
ion      s     py     pz     px    dxy    dyz    dz2    dxz    dx2    tot
  1  0.002  0.001  0.002  0.000  0.008  0.051  0.028  0.025  0.001  0.119
  2  0.002  0.001  0.002  0.000  0.008  0.051  0.029  0.025  0.001  0.119
  3  0.002  0.001  0.002  0.000  0.008  0.051  0.029  0.025  0.001  0.119
  4  0.002  0.001  0.002  0.000  0.008  0.051  0.028  0.025  0.001  0.119
  5  0.002  0.001  0.002  0.000  0.008  0.051  0.029  0.025  0.001  0.119
  6  0.002  0.001  0.002  0.000  0.008  0.051  0.028  0.025  0.001  0.119
  7  0.002  0.001  0.002  0.000  0.008  0.051  0.028  0.025  0.001  0.119
  8  0.002  0.001  0.002  0.000  0.008  0.051  0.029  0.025  0.001  0.119
tot  0.012  0.006  0.019  0.003  0.068  0.406  0.228  0.203  0.008  0.954
 
band  26 # energy    5.20190177 # occ.  2.00288784
 
ion      s     py     pz     px    dxy    dyz    dz2    dxz    dx2    tot
  1  0.002  0.000  0.000  0.000  0.028  0.000  0.000  0.085  0.004  0.120
  2  0.001  0.000  0.000  0.000  0.029  0.000  0.001  0.086  0.004  0.122
  3  0.002  0.000  0.000  0.000  0.027  0.000  0.000  0.087  0.004  0.121
  4  0.002  0.000  0.000  0.000  0.030  0.000  0.001  0.085  0.003  0.121
  5  0.002  0.000  0.000  0.000  0.030  0.000  0.001  0.085  0.004  0.121
  6  0.002  0.000  0.000  0.000  0.027  0.000  0.000  0.087  0.004  0.121
  7  0.001  0.000  0.000  0.000  0.029  0.000  0.001  0.086  0.004  0.122
  8  0.002  0.000  0.000  0.000  0.028  0.001  0.000  0.085  0.004  0.120
tot  0.013  0.001  0.002  0.000  0.229  0.002  0.005  0.686  0.031  0.968
 
band  27 # energy    5.20196850 # occ.  2.00289624
 
ion      s     py     pz     px    dxy    dyz    dz2    dxz    dx2    tot
  1  0.003  0.000  0.000  0.000  0.000  0.056  0.042  0.001  0.007  0.111
  2  0.003  0.000  0.000  0.000  0.000  0.057  0.042  0.001  0.006  0.110
  3  0.000  0.000  0.000  0.000  0.023  0.026  0.058  0.006  0.019  0.132
  4  0.000  0.000  0.000  0.000  0.021  0.026  0.057  0.009  0.020  0.132
  5  0.000  0.000  0.000  0.000  0.021  0.026  0.057  0.008  0.020  0.132
  6  0.000  0.000  0.000  0.000  0.023  0.026  0.058  0.006  0.019  0.132
  7  0.003  0.000  0.000  0.000  0.000  0.057  0.042  0.001  0.006  0.109
  8  0.003  0.000  0.000  0.000  0.000  0.057  0.042  0.001  0.007  0.111
tot  0.013  0.000  0.001  0.000  0.089  0.329  0.399  0.033  0.103  0.968
 
band  28 # energy    5.20197069 # occ.  2.00289652
 
ion      s     py     pz     px    dxy    dyz    dz2    dxz    dx2    tot
  1  0.000  0.000  0.000  0.000  0.022  0.026  0.058  0.007  0.019  0.132
  2  0.000  0.000  0.000  0.000  0.022  0.026  0.058  0.007  0.019  0.132
  3  0.003  0.000  0.000  0.000  0.000  0.057  0.042  0.001  0.006  0.110
  4  0.003  0.000  0.000  0.000  0.000  0.057  0.042  0.001  0.006  0.110
  5  0.003  0.000  0.000  0.000  0.000  0.057  0.042  0.001  0.006  0.110
  6  0.003  0.000  0.000  0.000  0.000  0.057  0.042  0.001  0.006  0.110
  7  0.000  0.000  0.000  0.000  0.022  0.026  0.058  0.007  0.019  0.132
  8  0.000  0.000  0.000  0.000  0.022  0.026  0.058  0.007  0.019  0.132
tot  0.013  0.000  0.001  0.000  0.089  0.330  0.399  0.033  0.103  0.968
 
band  29 # energy    5.33893907 # occ.  2.06307220
 
ion      s     py     pz     px    dxy    dyz    dz2    dxz    dx2    tot
  1  0.000  0.000  0.000  0.000  0.072  0.006  0.014  0.024  0.005  0.121
  2  0.000  0.000  0.000  0.000  0.072  0.006  0.014  0.024  0.005  0.121
  3  0.000  0.000  0.000  0.000  0.072  0.006  0.014  0.024  0.005  0.121
  4  0.000  0.000  0.000  0.000  0.072  0.006  0.014  0.024  0.005  0.121
  5  0.000  0.000  0.000  0.000  0.072  0.006  0.014  0.024  0.005  0.121
  6  0.000  0.000  0.000  0.000  0.072  0.006  0.014  0.024  0.005  0.121
  7  0.000  0.000  0.000  0.000  0.072  0.006  0.014  0.024  0.005  0.121
  8  0.000  0.000  0.000  0.000  0.072  0.006  0.014  0.024  0.005  0.121
tot  0.000  0.000  0.000  0.000  0.579  0.049  0.110  0.193  0.037  0.967
 
band  30 # energy    5.33895678 # occ.  2.06305135
 
ion      s     py     pz     px    dxy    dyz    dz2    dxz    dx2    tot
  1  0.000  0.000  0.000  0.000  0.018  0.034  0.005  0.055  0.009  0.121
  2  0.000  0.000  0.000  0.000  0.018  0.034  0.005  0.055  0.009  0.121
  3  0.000  0.000  0.000  0.000  0.018  0.034  0.005  0.055  0.009  0.121
  4  0.000  0.000  0.000  0.000  0.018  0.034  0.005  0.055  0.009  0.121
  5  0.000  0.000  0.000  0.000  0.018  0.034  0.005  0.055  0.009  0.121
  6  0.000  0.000  0.000  0.000  0.018  0.034  0.005  0.055  0.009  0.121
  7  0.000  0.000  0.000  0.000  0.018  0.034  0.005  0.055  0.009  0.121
  8  0.000  0.000  0.000  0.000  0.018  0.034  0.005  0.055  0.009  0.121
tot  0.000  0.000  0.000  0.000  0.147  0.271  0.037  0.440  0.073  0.967
 
band  31 # energy    5.36178831 # occ.  2.00397170
 
ion      s     py     pz     px    dxy    dyz    dz2    dxz    dx2    tot
  1  0.000  0.000  0.000  0.000  0.107  0.002  0.004  0.036  0.001  0.151
  2  0.000  0.000  0.000  0.000  0.107  0.002  0.005  0.036  0.002  0.151
  3  0.001  0.000  0.000  0.000  0.018  0.000  0.006  0.053  0.015  0.094
  4  0.001  0.000  0.000  0.000  0.018  0.000  0.007  0.053  0.015  0.094
  5  0.001  0.000  0.000  0.000  0.018  0.000  0.006  0.053  0.015  0.094
  6  0.001  0.000  0.000  0.000  0.018  0.000  0.007  0.053  0.015  0.094
  7  0.000  0.000  0.000  0.000  0.107  0.002  0.004  0.036  0.001  0.150
  8  0.000  0.000  0.000  0.000  0.107  0.002  0.005  0.036  0.002  0.151
tot  0.003  0.000  0.001  0.000  0.499  0.009  0.044  0.355  0.067  0.979
 
band  32 # energy    5.36179458 # occ.  2.00394508
 
ion      s     py     pz     px    dxy    dyz    dz2    dxz    dx2    tot
  1  0.001  0.000  0.000  0.000  0.019  0.000  0.005  0.058  0.019  0.102
  2  0.001  0.000  0.000  0.000  0.016  0.002  0.008  0.047  0.012  0.086
  3  0.000  0.000  0.000  0.000  0.111  0.000  0.006  0.031  0.003  0.151
  4  0.000  0.000  0.000  0.000  0.101  0.005  0.003  0.040  0.001  0.150
  5  0.000  0.000  0.000  0.000  0.102  0.005  0.003  0.040  0.001  0.151
  6  0.000  0.000  0.000  0.000  0.110  0.000  0.006  0.031  0.003  0.150
  7  0.001  0.000  0.000  0.000  0.016  0.002  0.008  0.047  0.012  0.086
  8  0.001  0.000  0.000  0.000  0.019  0.000  0.005  0.058  0.019  0.102
tot  0.003  0.000  0.001  0.000  0.494  0.015  0.044  0.352  0.068  0.979
 
band  33 # energy    5.36184209 # occ.  2.00374334
 
ion      s     py     pz     px    dxy    dyz    dz2    dxz    dx2    tot
  1  0.001  0.000  0.000  0.000  0.003  0.074  0.013  0.009  0.014  0.114
  2  0.000  0.000  0.000  0.000  0.007  0.072  0.009  0.020  0.021  0.130
  3  0.000  0.000  0.000  0.000  0.001  0.076  0.009  0.019  0.016  0.123
  4  0.000  0.000  0.000  0.000  0.010  0.071  0.012  0.010  0.019  0.122
  5  0.000  0.000  0.000  0.000  0.010  0.071  0.012  0.010  0.019  0.123
  6  0.000  0.000  0.000  0.000  0.001  0.076  0.009  0.019  0.017  0.122
  7  0.000  0.000  0.000  0.000  0.007  0.072  0.009  0.020  0.021  0.130
  8  0.001  0.000  0.000  0.000  0.003  0.074  0.013  0.009  0.014  0.114
tot  0.003  0.000  0.001  0.000  0.043  0.586  0.087  0.117  0.141  0.979
 
band  34 # energy    5.57668729 # occ. -0.06942486
 
ion      s     py     pz     px    dxy    dyz    dz2    dxz    dx2    tot
  1  0.000  0.000  0.000  0.000  0.001  0.000  0.000  0.000  0.000  0.002
  2  0.000  0.000  0.000  0.000  0.065  0.016  0.036  0.022  0.012  0.150
  3  0.000  0.000  0.000  0.000  0.072  0.015  0.036  0.042  0.005  0.170
  4  0.000  0.000  0.000  0.000  0.002  0.055  0.000  0.112  0.001  0.170
  5  0.000  0.000  0.000  0.000  0.002  0.055  0.000  0.112  0.001  0.170
  6  0.000  0.000  0.000  0.000  0.072  0.015  0.036  0.042  0.005  0.170
  7  0.000  0.000  0.000  0.000  0.065  0.016  0.036  0.022  0.012  0.150
  8  0.000  0.000  0.000  0.000  0.001  0.000  0.000  0.000  0.000  0.002
tot  0.000  0.000  0.000  0.000  0.279  0.172  0.144  0.351  0.036  0.982
 
band  35 # energy    5.57669894 # occ. -0.06942035
 
ion      s     py     pz     px    dxy    dyz    dz2    dxz    dx2    tot
  1  0.000  0.000  0.000  0.000  0.032  0.042  0.015  0.095  0.001  0.184
  2  0.000  0.000  0.000  0.000  0.032  0.042  0.015  0.095  0.001  0.184
  3  0.000  0.000  0.000  0.000  0.027  0.006  0.015  0.009  0.005  0.061
  4  0.000  0.000  0.000  0.000  0.027  0.006  0.015  0.009  0.005  0.061
  5  0.000  0.000  0.000  0.000  0.027  0.006  0.015  0.009  0.005  0.061
  6  0.000  0.000  0.000  0.000  0.027  0.006  0.015  0.009  0.005  0.061
  7  0.000  0.000  0.000  0.000  0.032  0.042  0.015  0.095  0.001  0.184
  8  0.000  0.000  0.000  0.000  0.032  0.042  0.015  0.095  0.001  0.184
tot  0.000  0.000  0.000  0.000  0.234  0.193  0.117  0.417  0.022  0.982
 
band  36 # energy    5.57670113 # occ. -0.06941950
 
ion      s     py     pz     px    dxy    dyz    dz2    dxz    dx2    tot
  1  0.000  0.000  0.000  0.000  0.079  0.019  0.043  0.026  0.014  0.182
  2  0.000  0.000  0.000  0.000  0.015  0.004  0.008  0.005  0.003  0.034
  3  0.000  0.000  0.000  0.000  0.013  0.040  0.008  0.071  0.005  0.137
  4  0.000  0.000  0.000  0.000  0.083  0.000  0.043  0.001  0.010  0.137
  5  0.000  0.000  0.000  0.000  0.083  0.000  0.043  0.001  0.010  0.137
  6  0.000  0.000  0.000  0.000  0.013  0.040  0.008  0.071  0.005  0.137
  7  0.000  0.000  0.000  0.000  0.015  0.004  0.008  0.005  0.003  0.034
  8  0.000  0.000  0.000  0.000  0.079  0.019  0.043  0.026  0.014  0.182
tot  0.000  0.000  0.000  0.000  0.380  0.125  0.205  0.207  0.065  0.982
 
band  37 # energy    6.09587164 # occ.  0.00000000
 
ion      s     py     pz     px    dxy    dyz    dz2    dxz    dx2    tot
  1  0.000  0.001  0.000  0.000  0.021  0.023  0.052  0.007  0.017  0.122
  2  0.000  0.001  0.000  0.000  0.021  0.023  0.052  0.007  0.017  0.122
  3  0.000  0.001  0.000  0.000  0.021  0.023  0.052  0.007  0.017  0.122
  4  0.000  0.001  0.000  0.000  0.021  0.023  0.052  0.007  0.017  0.122
  5  0.000  0.001  0.000  0.000  0.021  0.023  0.052  0.007  0.017  0.122
  6  0.000  0.001  0.000  0.000  0.021  0.023  0.052  0.007  0.017  0.122
  7  0.000  0.001  0.000  0.000  0.021  0.023  0.052  0.007  0.017  0.122
  8  0.000  0.001  0.000  0.000  0.021  0.023  0.052  0.007  0.017  0.122
tot  0.000  0.010  0.003  0.000  0.165  0.186  0.419  0.055  0.140  0.979
 
band  38 # energy    6.09597197 # occ.  0.00000000
 
ion      s     py     pz     px    dxy    dyz    dz2    dxz    dx2    tot
  1  0.000  0.000  0.000  0.002  0.002  0.004  0.017  0.007  0.090  0.122
  2  0.000  0.000  0.000  0.002  0.002  0.004  0.017  0.007  0.090  0.122
  3  0.000  0.000  0.000  0.002  0.002  0.004  0.017  0.007  0.090  0.122