<?xml version="1.0" encoding="ISO-8859-1"?>
<modeling>
 <generator>
  <i name="program" type="string">vasp </i>
  <i name="version" type="string">5.3.5+vtst+beef+vaspsol-serial  </i>
  <i name="subversion" type="string">31Mar14 (build Jan 17 2015 14:42:51) complex serial </i>
  <i name="platform" type="string">LinuxIFC </i>
  <i name="date" type="string">2015 01 22 </i>
  <i name="time" type="string">16:57:54 </i>
 </generator>
 <incar>
  <i type="string" name="PREC">normal</i>
  <i type="int" name="NBANDS">    44</i>
  <i name="SIGMA">      0.10000000</i>
  <i type="int" name="LMAXMIX">     4</i>
  <i type="logical" name="LORBIT"> F  </i>
  <i type="logical" name="LDAU"> T  </i>
  <v type="int" name="LDAUTYPE">     3</v>
  <v type="int" name="LDAUL">     2    -1</v>
  <v name="LDAUU">      0.00000000      0.00000000</v>
  <v name="LDAUJ">      0.00000000      0.00000000</v>
  <i type="int" name="LDAUPRINT">     2</i>
 </incar>
 <kpoints>
  <generation param="Monkhorst-Pack">
   <v type="int" name="divisions">       4        4        4 </v>
   <v name="usershift">      0.00000000       0.00000000       0.00000000 </v>
   <v name="genvec1">      0.25000000       0.00000000       0.00000000 </v>
   <v name="genvec2">      0.00000000       0.25000000       0.00000000 </v>
   <v name="genvec3">      0.00000000       0.00000000       0.25000000 </v>
   <v name="shift">      0.50000000       0.50000000       0.50000000 </v>
  </generation>
  <varray name="kpointlist" >
   <v>       0.12500000       0.12500000       0.12500000 </v>
   <v>       0.37500000       0.12500000       0.12500000 </v>
   <v>      -0.12500000       0.12500000       0.12500000 </v>
   <v>      -0.37500000       0.37500000       0.12500000 </v>
   <v>      -0.37500000      -0.37500000       0.12500000 </v>
   <v>      -0.37500000       0.37500000       0.37500000 </v>
  </varray>
  <varray name="weights" >
   <v>       0.12500000 </v>
   <v>       0.18750000 </v>
   <v>       0.09375000 </v>
   <v>       0.37500000 </v>
   <v>       0.12500000 </v>
   <v>       0.09375000 </v>
  </varray>
 </kpoints>
 <parameters>
  <separator name="general" >
   <i type="string" name="SYSTEM">unknown system</i>
   <i type="logical" name="LCOMPAT"> F  </i>
  </separator>
  <separator name="electronic" >
   <i type="string" name="PREC">normal</i>
   <i name="ENMAX">    267.88200000</i>
   <i name="ENAUG">    511.36800000</i>
   <i name="EDIFF">      0.00010000</i>
   <i type="int" name="IALGO">    38</i>
   <i type="int" name="IWAVPR">     0</i>
   <i type="int" name="NBANDS">    44</i>
   <i name="NELECT">     64.00000000</i>
   <i type="int" name="TURBO">     0</i>
   <i type="int" name="IRESTART">     0</i>
   <i type="int" name="NREBOOT">     0</i>
   <i type="int" name="NMIN">     0</i>
   <i name="EREF">      0.00000000</i>
   <separator name="electronic smearing" >
    <i type="int" name="ISMEAR">     1</i>
    <i name="SIGMA">      0.10000000</i>
    <i name="KSPACING">      0.50000000</i>
    <i type="logical" name="KGAMMA"> T  </i>
   </separator>
   <separator name="electronic projectors" >
    <i type="logical" name="LREAL"> F  </i>
    <v name="ROPT">      0.00000000      0.00000000</v>
    <i type="int" name="LMAXPAW">  -100</i>
    <i type="int" name="LMAXMIX">     4</i>
    <i type="logical" name="NLSPLINE"> F  </i>
   </separator>
   <separator name="electronic startup" >
    <i type="int" name="ISTART">     1</i>
    <i type="int" name="ICHARG">     0</i>
    <i type="int" name="INIWAV">     1</i>
   </separator>
   <separator name="electronic spin" >
    <i type="int" name="ISPIN">     1</i>
    <i type="logical" name="LNONCOLLINEAR"> F  </i>
    <v name="MAGMOM">      1.00000000      1.00000000      1.00000000      1.00000000      1.00000000      1.00000000      1.00000000      1.00000000</v>
    <i name="NUPDOWN">     -1.00000000</i>
    <i type="logical" name="LSORBIT"> F  </i>
    <v name="SAXIS">      0.00000000      0.00000000      1.00000000</v>
    <i type="logical" name="LSPIRAL"> F  </i>
    <v name="QSPIRAL">      0.00000000      0.00000000      0.00000000</v>
    <i type="logical" name="LZEROZ"> F  </i>
   </separator>
   <separator name="electronic exchange-correlation" >
    <i type="logical" name="LASPH"> F  </i>
    <i type="logical" name="LMETAGGA"> F  </i>
   </separator>
   <separator name="electronic convergence" >
    <i type="int" name="NELM">    60</i>
    <i type="int" name="NELMDL">     0</i>
    <i type="int" name="NELMIN">     2</i>
    <i name="ENINI">    267.88200000</i>
    <separator name="electronic convergence detail" >
     <i type="logical" name="LDIAG"> T  </i>
     <i type="logical" name="LSUBROT"> F  </i>
     <i name="WEIMIN">      0.00000000</i>
     <i name="EBREAK">      0.00000057</i>
     <i name="DEPER">      0.30000000</i>
     <i type="int" name="NRMM">     4</i>
     <i name="TIME">      0.40000000</i>
    </separator>
   </separator>
   <separator name="electronic mixer" >
    <i name="AMIX">      0.40000000</i>
    <i name="BMIX">      1.00000000</i>
    <i name="AMIN">      0.10000000</i>
    <i name="AMIX_MAG">      1.60000000</i>
    <i name="BMIX_MAG">      1.00000000</i>
    <separator name="electronic mixer details" >
     <i type="int" name="IMIX">     4</i>
     <i type="int" name="MAXMIX">   -45</i>
     <i name="WC">    100.00000000</i>
     <i type="int" name="INIMIX">     1</i>
     <i type="int" name="MIXPRE">     1</i>
     <i type="int" name="MREMOVE">     5</i>
    </separator>
   </separator>
   <separator name="electronic dipolcorrection" >
    <i type="logical" name="LDIPOL"> F  </i>
    <i type="logical" name="LMONO"> F  </i>
    <i type="int" name="IDIPOL">     0</i>
    <i name="EPSILON">      1.00000000</i>
    <v name="DIPOL">   -100.00000000   -100.00000000   -100.00000000</v>
    <i name="EFIELD">      0.00000000</i>
   </separator>
  </separator>
  <separator name="grids" >
   <i type="int" name="NGX">    20</i>
   <i type="int" name="NGY">    20</i>
   <i type="int" name="NGZ">    20</i>
   <i type="int" name="NGXF">    40</i>
   <i type="int" name="NGYF">    40</i>
   <i type="int" name="NGZF">    40</i>
   <i type="logical" name="ADDGRID"> F  </i>
  </separator>
  <separator name="ionic" >
   <i type="int" name="NSW">     0</i>
   <i type="int" name="IBRION">    -1</i>
   <i type="int" name="ISIF">     2</i>
   <i name="PSTRESS">      0.00000000</i>
   <i name="EDIFFG">      0.00100000</i>
   <i type="int" name="NFREE">     0</i>
   <i name="POTIM">      0.50000000</i>
   <i name="SMASS">     -3.00000000</i>
   <i name="SCALEE">      1.00000000</i>
  </separator>
  <separator name="ionic md" >
   <i name="TEBEG">      0.00010000</i>
   <i name="TEEND">      0.00010000</i>
   <i type="int" name="NBLOCK">     1</i>
   <i type="int" name="KBLOCK">     1</i>
   <i type="int" name="NPACO">   256</i>
   <i name="APACO">     16.00000000</i>
  </separator>
  <separator name="symmetry" >
   <i type="int" name="ISYM">     2</i>
   <i name="SYMPREC">      0.00001000</i>
  </separator>
  <separator name="dos" >
   <i type="logical" name="LORBIT"> F  </i>
   <v name="RWIGS">     -1.00000000     -1.00000000</v>
   <i type="int" name="NEDOS">   301</i>
   <i name="EMIN">     10.00000000</i>
   <i name="EMAX">    -10.00000000</i>
   <i name="EFERMI">      0.00000000</i>
  </separator>
  <separator name="writing" >
   <i type="int" name="NWRITE">     2</i>
   <i type="logical" name="LWAVE"> T  </i>
   <i type="logical" name="LCHARG"> T  </i>
   <i type="logical" name="LPARD"> F  </i>
   <i type="logical" name="LVTOT"> F  </i>
   <i type="logical" name="LVHAR"> F  </i>
   <i type="logical" name="LELF"> F  </i>
   <i type="logical" name="LOPTICS"> F  </i>
   <v name="STM">      0.00000000      0.00000000      0.00000000      0.00000000      0.00000000      0.00000000      0.00000000</v>
  </separator>
  <separator name="performance" >
   <i type="int" name="NPAR">     1</i>
   <i type="int" name="NSIM">     4</i>
   <i type="int" name="NBLK">    -1</i>
   <i type="logical" name="LPLANE"> T  </i>
   <i type="logical" name="LSCALAPACK"> F  </i>
   <i type="logical" name="LSCAAWARE"> F  </i>
   <i type="logical" name="LSCALU"> F  </i>
   <i type="logical" name="LASYNC"> F  </i>
   <i type="logical" name="LORBITALREAL"> F  </i>
  </separator>
  <separator name="miscellaneous" >
   <i type="int" name="IDIOT">     3</i>
   <i type="logical" name="LMUSIC"> F  </i>
   <v name="POMASS">     55.84700000     55.84700000</v>
   <v name="DARWINR">      0.00000000      0.00000000</v>
   <v name="DARWINV">      1.00000000      1.00000000</v>
   <i type="logical" name="LCORR"> T  </i>
  </separator>
  <i type="logical" name="GGA_COMPAT"> T  </i>
  <i type="logical" name="LBERRY"> F  </i>
  <i type="int" name="ICORELEVEL">     0</i>
  <i type="logical" name="LDAU"> T  </i>
  <v type="int" name="LDAUTYPE">     3</v>
  <v type="int" name="LDAUL">     2</v>
  <v name="LDAUU">      0.00000000</v>
  <v name="LDAUJ">      0.00000000</v>
  <i type="int" name="LDAUPRINT">     2</i>
  <i type="int" name="I_CONSTRAINED_M">     0</i>
  <separator name="electronic exchange-correlation" >
   <i type="string" name="GGA">--</i>
   <i type="int" name="VOSKOWN">     0</i>
   <i type="logical" name="LHFCALC"> F  </i>
   <i type="string" name="PRECFOCK"></i>
   <i type="logical" name="LSYMGRAD"> F  </i>
   <i type="logical" name="LHFONE"> F  </i>
   <i type="logical" name="LRHFCALC"> F  </i>
   <i type="logical" name="LTHOMAS"> F  </i>
   <i type="logical" name="LMODELHF"> F  </i>
   <i name="ENCUT4O">     -1.00000000</i>
   <i type="int" name="EXXOEP">     0</i>
   <i type="int" name="FOURORBIT">     0</i>
   <i name="AEXX">      0.00000000</i>
   <i name="HFALPHA">      0.00000000</i>
   <i name="MCALPHA">      0.00000000</i>
   <i name="ALDAX">      1.00000000</i>
   <i name="AGGAX">      1.00000000</i>
   <i name="ALDAC">      1.00000000</i>
   <i name="AGGAC">      1.00000000</i>
   <i type="int" name="NKREDX">     1</i>
   <i type="int" name="NKREDY">     1</i>
   <i type="int" name="NKREDZ">     1</i>
   <i type="logical" name="SHIFTRED"> F  </i>
   <i type="logical" name="ODDONLY"> F  </i>
   <i type="logical" name="EVENONLY"> F  </i>
   <i type="int" name="LMAXFOCK">     0</i>
   <i type="int" name="NMAXFOCKAE">     0</i>
   <i type="logical" name="LFOCKAEDFT"> F  </i>
   <i name="HFSCREEN">      0.00000000</i>
   <i name="HFSCREENC">      0.00000000</i>
   <i type="int" name="NBANDSGWLOW">     0</i>
  </separator>
  <separator name="vdW DFT" >
   <i type="logical" name="LUSE_VDW"> F  </i>
   <i name="Zab_VDW">     -0.84910000</i>
   <i name="PARAM1">      0.12340000</i>
   <i name="PARAM2">      1.00000000</i>
   <i name="PARAM3">      0.00000000</i>
  </separator>
  <separator name="model GW" >
   <i type="int" name="MODEL_GW">     0</i>
   <i name="MODEL_EPS0">      7.09197090</i>
   <i name="MODEL_ALPHA">      1.00000000</i>
  </separator>
  <separator name="linear response parameters" >
   <i type="logical" name="LEPSILON"> F  </i>
   <i type="logical" name="LRPA"> F  </i>
   <i type="logical" name="LNABLA"> F  </i>
   <i type="logical" name="LVEL"> F  </i>
   <i type="int" name="KINTER">     0</i>
   <i name="CSHIFT">      0.10000000</i>
   <i name="OMEGAMAX">     -1.00000000</i>
   <i name="DEG_THRESHOLD">      0.00200000</i>
  </separator>
  <separator name="orbital magnetization" >
   <i type="logical" name="NUCIND"> F  </i>
   <v name="MAGPOS">      0.00000000      0.00000000      0.00000000</v>
   <i type="logical" name="LNICSALL"> T  </i>
   <i type="logical" name="ORBITALMAG"> F  </i>
   <i type="logical" name="LMAGBLOCH"> F  </i>
   <i type="logical" name="LCHIMAG"> F  </i>
   <i type="logical" name="LGAUGE"> T  </i>
   <i type="int" name="MAGATOM">     0</i>
   <v name="MAGDIPOL">      0.00000000      0.00000000      0.00000000</v>
   <v name="AVECCONST">      0.00000000      0.00000000      0.00000000</v>
  </separator>
  <separator name="response functions" >
   <i type="logical" name="LADDER"> F  </i>
   <i type="logical" name="LFXC"> F  </i>
   <i type="logical" name="LHARTREE"> T  </i>
   <i type="int" name="IBSE">     0</i>
   <i type="logical" name="LTCTE"> F  </i>
   <i type="logical" name="LTETE"> F  </i>
   <i type="logical" name="LTRIPLET"> F  </i>
   <i type="logical" name="LFXCEPS"> F  </i>
   <i type="logical" name="LFXHEG"> F  </i>
   <i type="logical" name="L2ORDER"> F  </i>
   <i type="logical" name="LUSEW"> F  </i>
   <i name="ENCUTGW">     -2.00000000</i>
   <i name="ENCUTGWSOFT">     -2.00000000</i>
   <i name="ENCUTLF">     -1.00000000</i>
   <i type="int" name="LMAXMP2">    -1</i>
   <i name="SCISSOR">      0.00000000</i>
   <i type="int" name="NOMEGA">     0</i>
   <i type="int" name="NOMEGAR">     0</i>
   <i type="int" name="NBANDSGW">    -1</i>
   <i type="int" name="NBANDSO">    -1</i>
   <i type="int" name="NBANDSV">    -1</i>
   <i type="int" name="NELM">     1</i>
   <i type="int" name="DIM">     3</i>
   <i type="int" name="ANTIRES">     0</i>
   <i name="OMEGAMAX">    -30.00000000</i>
   <i name="OMEGAMIN">    -30.00000000</i>
   <i name="OMEGATL">   -200.00000000</i>
   <i type="int" name="OMEGAGRID">     0</i>
   <i name="CSHIFT">     -0.10000000</i>
   <i type="logical" name="SELFENERGY"> F  </i>
   <i type="logical" name="LSPECTRAL"> F  </i>
   <i type="logical" name="ODDONLYGW"> F  </i>
   <i type="logical" name="EVENONLYGW"> F  </i>
   <i type="int" name="NKREDLFX">     1</i>
   <i type="int" name="NKREDLFY">     1</i>
   <i type="int" name="NKREDLFZ">     1</i>
   <i type="int" name="MAXMEM">  1800</i>
   <i type="int" name="TELESCOPE">     0</i>
   <i type="int" name="TAUPAR">     1</i>
  </separator>
  <separator name="External order field" >
   <i name="OFIELD_KAPPA">      0.00000000</i>
   <v name="OFIELD_K">      0.00000000      0.00000000      0.00000000</v>
   <i name="OFIELD_Q6_NEAR">      0.00000000</i>
   <i name="OFIELD_Q6_FAR">      0.00000000</i>
   <i name="OFIELD_A">      0.00000000</i>
  </separator>
 </parameters>
 <atominfo>
  <atoms>       8 </atoms>
  <types>       2 </types>
  <array name="atoms" >
   <dimension dim="1">ion</dimension>
   <field type="string">element</field>
   <field type="int">atomtype</field>
   <set>
    <rc><c>Fe</c><c>   1</c></rc>
    <rc><c>Fe</c><c>   2</c></rc>
    <rc><c>Fe</c><c>   2</c></rc>
    <rc><c>Fe</c><c>   2</c></rc>
    <rc><c>Fe</c><c>   2</c></rc>
    <rc><c>Fe</c><c>   2</c></rc>
    <rc><c>Fe</c><c>   2</c></rc>
    <rc><c>Fe</c><c>   2</c></rc>
   </set>
  </array>
  <array name="atomtypes" >
   <dimension dim="1">type</dimension>
   <field type="int">atomspertype</field>
   <field type="string">element</field>
   <field>mass</field>
   <field>valence</field>
   <field type="string">pseudopotential</field>
   <set>
    <rc><c>   1</c><c>Fe</c><c>     55.84700000</c><c>      8.00000000</c><c>  PAW_PBE Fe 06Sep2000                  </c></rc>
    <rc><c>   7</c><c>Fe</c><c>     55.84700000</c><c>      8.00000000</c><c>  PAW_PBE Fe 06Sep2000                  </c></rc>
   </set>
  </array>
 </atominfo>
 <structure name="initialpos" >
  <crystal>
   <varray name="basis" >
    <v>       4.97098582       0.00000000       0.00000000 </v>
    <v>      -1.65699527       4.68669037       0.00000000 </v>
    <v>      -1.65699527      -2.34334519       4.05879292 </v>
   </varray>
   <i name="volume">     94.55961200 </i>
   <varray name="rec_basis" >
    <v>       0.20116734       0.07112340       0.12318933 </v>
    <v>       0.00000000       0.21337019       0.12318933 </v>
    <v>       0.00000000       0.00000000       0.24637867 </v>
   </varray>
  </crystal>
  <varray name="positions" >
   <v>       0.00000000       0.00000000       0.00000000 </v>
   <v>       0.50000000       0.00000000       0.00000000 </v>
   <v>       0.00000000       0.50000000       0.00000000 </v>
   <v>       0.50000000       0.50000000       0.00000000 </v>
   <v>       0.00000000       0.00000000       0.50000000 </v>
   <v>       0.50000000       0.00000000       0.50000000 </v>
   <v>       0.00000000       0.50000000       0.50000000 </v>
   <v>       0.50000000       0.50000000       0.50000000 </v>
  </varray>
 </structure>
 <calculation>
  <scstep>
   <time name="dav">    1.15    1.16</time>
   <time name="total">    1.44    1.45</time>
   <energy>
    <i name="alphaZ">    467.77705306 </i>
    <i name="ewald">  -4674.38064557 </i>
    <i name="hartreedc">   -780.55029011 </i>
    <i name="XCdc">     24.13102166 </i>
    <i name="pawpsdc">   5378.40039133 </i>
    <i name="pawaedc">  -5443.95388413 </i>
    <i name="eentropy">      0.00855555 </i>
    <i name="bandstr">    213.30081285 </i>
    <i name="atom">   4754.24596522 </i>
    <i name="e_fr_energy">    -61.02102014 </i>
    <i name="e_wo_entrp">    -61.02957569 </i>
    <i name="e_0_energy">    -61.02387199 </i>
   </energy>
  </scstep>
  <scstep>
   <time name="dav">    2.59    2.59</time>
   <time name="total">    2.87    2.88</time>
   <energy>
    <i name="e_fr_energy">    -61.02318795 </i>
    <i name="e_wo_entrp">    -61.03175408 </i>
    <i name="e_0_energy">    -61.02604333 </i>
   </energy>
  </scstep>
  <scstep>
   <time name="dav">    2.52    2.52</time>
   <time name="total">    2.79    2.82</time>
   <energy>
    <i name="e_fr_energy">    -61.02095395 </i>
    <i name="e_wo_entrp">    -61.02951071 </i>
    <i name="e_0_energy">    -61.02380620 </i>
   </energy>
  </scstep>
  <scstep>
   <time name="dav">    1.15    1.15</time>
   <time name="total">    1.29    1.44</time>
   <energy>
    <i name="alphaZ">    467.77705306 </i>
    <i name="ewald">  -4674.38064557 </i>
    <i name="hartreedc">   -780.55663269 </i>
    <i name="XCdc">     24.13133309 </i>
    <i name="pawpsdc">   5378.40820682 </i>
    <i name="pawaedc">  -5443.96321095 </i>
    <i name="eentropy">      0.00855448 </i>
    <i name="bandstr">    213.30836377 </i>
    <i name="atom">   4754.24596522 </i>
    <i name="e_fr_energy">    -61.02101277 </i>
    <i name="e_wo_entrp">    -61.02956725 </i>
    <i name="e_0_energy">    -61.02386427 </i>
   </energy>
  </scstep>
  <structure>
   <crystal>
    <varray name="basis" >
     <v>       4.97098582       0.00000000       0.00000000 </v>
     <v>      -1.65699527       4.68669037       0.00000000 </v>
     <v>      -1.65699527      -2.34334519       4.05879292 </v>
    </varray>
    <i name="volume">     94.55961200 </i>
    <varray name="rec_basis" >
     <v>       0.20116734       0.07112340       0.12318933 </v>
     <v>       0.00000000       0.21337019       0.12318933 </v>
     <v>       0.00000000       0.00000000       0.24637867 </v>
    </varray>
   </crystal>
   <varray name="positions" >
    <v>       0.00000000       0.00000000       0.00000000 </v>
    <v>       0.50000000       0.00000000       0.00000000 </v>
    <v>       0.00000000       0.50000000       0.00000000 </v>
    <v>       0.50000000       0.50000000       0.00000000 </v>
    <v>       0.00000000       0.00000000       0.50000000 </v>
    <v>       0.50000000       0.00000000       0.50000000 </v>
    <v>       0.00000000       0.50000000       0.50000000 </v>
    <v>       0.50000000       0.50000000       0.50000000 </v>
   </varray>
  </structure>
  <varray name="forces" >
   <v>       0.00000000       0.00000000       0.00000000 </v>
   <v>       0.00000000       0.00000000       0.00000000 </v>
   <v>       0.00000000       0.00000000       0.00000000 </v>
   <v>       0.00000000       0.00000000       0.00000000 </v>
   <v>       0.00000000       0.00000000       0.00000000 </v>
   <v>       0.00000000       0.00000000       0.00000000 </v>
   <v>       0.00000000       0.00000000       0.00000000 </v>
   <v>       0.00000000       0.00000000       0.00000000 </v>
  </varray>
  <varray name="stress" >
   <v>    -285.09336552       0.00000000       0.00000000 </v>
   <v>       0.00000000    -285.09336552       0.00000000 </v>
   <v>       0.00000000       0.00000000    -285.09336552 </v>
  </varray>
  <energy>
   <i name="e_fr_energy">    -61.02101277 </i>
   <i name="e_wo_entrp">    -61.02386427 </i>
   <i name="e_0_energy">      0.00855448 </i>
  </energy>
  <time name="totalsc">   11.14   11.68</time>
  <eigenvalues>
   <array>
    <dimension dim="1">band</dimension>
    <dimension dim="2">kpoint</dimension>
    <dimension dim="3">spin</dimension>
    <field>eigene</field>
    <field>occ</field>
    <set>
     <set comment="spin 1">
      <set comment="kpoint 1">
       <r>   -1.8017    1.0000 </r>
       <r>    1.2476    1.0000 </r>
       <r>    1.2476    1.0000 </r>
       <r>    1.2476    1.0000 </r>
       <r>    1.8113    1.0000 </r>
       <r>    1.8113    1.0000 </r>
       <r>    1.8113    1.0000 </r>
       <r>    1.9338    1.0000 </r>
       <r>    1.9338    1.0000 </r>
       <r>    2.9665    1.0000 </r>
       <r>    2.9665    1.0000 </r>
       <r>    2.9665    1.0000 </r>
       <r>    3.1247    1.0000 </r>
       <r>    3.1247    1.0000 </r>
       <r>    3.1247    1.0000 </r>
       <r>    3.7438    1.0000 </r>
       <r>    3.7438    1.0000 </r>
       <r>    3.8172    1.0000 </r>
       <r>    3.8172    1.0000 </r>
       <r>    3.8173    1.0000 </r>
       <r>    3.9984    1.0000 </r>
       <r>    3.9985    1.0000 </r>
       <r>    3.9985    1.0000 </r>
       <r>    4.5352    1.0000 </r>
       <r>    5.0681    1.0000 </r>
       <r>    5.2019    1.0014 </r>
       <r>    5.2020    1.0014 </r>
       <r>    5.2020    1.0014 </r>
       <r>    5.3389    1.0315 </r>
       <r>    5.3390    1.0315 </r>
       <r>    5.3618    1.0020 </r>
       <r>    5.3618    1.0020 </r>
       <r>    5.3618    1.0019 </r>
       <r>    5.5767   -0.0347 </r>
       <r>    5.5767   -0.0347 </r>
       <r>    5.5767   -0.0347 </r>
       <r>    6.0959    0.0000 </r>
       <r>    6.0960    0.0000 </r>
       <r>    6.1298    0.0000 </r>
       <r>    6.1299    0.0000 </r>
       <r>    6.1299    0.0000 </r>
       <r>    6.7975    0.0000 </r>
       <r>    6.7975    0.0000 </r>
       <r>    6.7976    0.0000 </r>
      </set>
      <set comment="kpoint 2">
       <r>   -0.1985    1.0000 </r>
       <r>   -0.1985    1.0000 </r>
       <r>    1.4093    1.0000 </r>
       <r>    1.4093    1.0000 </r>
       <r>    2.2915    1.0000 </r>
       <r>    2.2915    1.0000 </r>
       <r>    2.4866    1.0000 </r>
       <r>    2.4866    1.0000 </r>
       <r>    2.6533    1.0000 </r>
       <r>    2.6533    1.0000 </r>
       <r>    2.8311    1.0000 </r>
       <r>    2.8311    1.0000 </r>
       <r>    3.0247    1.0000 </r>
       <r>    3.0247    1.0000 </r>
       <r>    3.1593    1.0000 </r>
       <r>    3.1593    1.0000 </r>
       <r>    3.3261    1.0000 </r>
       <r>    3.3261    1.0000 </r>
       <r>    3.3298    1.0000 </r>
       <r>    3.3298    1.0000 </r>
       <r>    3.5118    1.0000 </r>
       <r>    3.5119    1.0000 </r>
       <r>    3.7995    1.0000 </r>
       <r>    3.7997    1.0000 </r>
       <r>    5.2466    1.0079 </r>
       <r>    5.2467    1.0079 </r>
       <r>    5.3241    1.0355 </r>
       <r>    5.3241    1.0355 </r>
       <r>    5.3247    1.0355 </r>
       <r>    5.3249    1.0355 </r>
       <r>    5.3647    0.9954 </r>
       <r>    5.3647    0.9954 </r>
       <r>    5.4664    0.3382 </r>
       <r>    5.4664    0.3381 </r>
       <r>    5.5142    0.0501 </r>
       <r>    5.5144    0.0492 </r>
       <r>    5.5912   -0.0301 </r>
       <r>    5.5912   -0.0301 </r>
       <r>    5.8015    0.0000 </r>
       <r>    5.8015    0.0000 </r>
       <r>    6.1839    0.0000 </r>
       <r>    6.1839    0.0000 </r>
       <r>    6.9974    0.0000 </r>
       <r>    6.9974    0.0000 </r>
      </set>
      <set comment="kpoint 3">
       <r>   -2.4055    1.0000 </r>
       <r>    1.3111    1.0000 </r>
       <r>    1.3111    1.0000 </r>
       <r>    1.3112    1.0000 </r>
       <r>    1.3112    1.0000 </r>
       <r>    1.4602    1.0000 </r>
       <r>    1.4604    1.0000 </r>
       <r>    1.6746    1.0000 </r>
       <r>    1.6949    1.0000 </r>
       <r>    2.8299    1.0000 </r>
       <r>    2.8301    1.0000 </r>
       <r>    3.0009    1.0000 </r>
       <r>    3.0009    1.0000 </r>
       <r>    3.0010    1.0000 </r>
       <r>    3.0010    1.0000 </r>
       <r>    3.9491    1.0000 </r>
       <r>    3.9494    1.0000 </r>
       <r>    4.0364    1.0000 </r>
       <r>    4.6160    1.0000 </r>
       <r>    4.6160    1.0000 </r>
       <r>    4.6167    1.0000 </r>
       <r>    4.6167    1.0000 </r>
       <r>    4.9533    1.0000 </r>
       <r>    4.9534    1.0000 </r>
       <r>    5.2629    1.0130 </r>
       <r>    5.3107    1.0331 </r>
       <r>    5.3107    1.0331 </r>
       <r>    5.3110    1.0332 </r>
       <r>    5.3110    1.0332 </r>
       <r>    5.4255    0.6765 </r>
       <r>    5.4261    0.6721 </r>
       <r>    5.4736    0.2828 </r>
       <r>    5.6174   -0.0183 </r>
       <r>    5.6186   -0.0178 </r>
       <r>    6.0521    0.0000 </r>
       <r>    6.0525    0.0000 </r>
       <r>    6.2267    0.0000 </r>
       <r>    6.4546    0.0000 </r>
       <r>    6.4546    0.0000 </r>
       <r>    6.4548    0.0000 </r>
       <r>    6.4549    0.0000 </r>
       <r>    6.4981    0.0000 </r>
       <r>    6.4981    0.0000 </r>
       <r>    6.4987    0.0000 </r>
      </set>
      <set comment="kpoint 4">
       <r>   -1.2311    1.0000 </r>
       <r>    0.5381    1.0000 </r>
       <r>    1.6116    1.0000 </r>
       <r>    1.6117    1.0000 </r>
       <r>    1.9224    1.0000 </r>
       <r>    2.0363    1.0000 </r>
       <r>    2.0668    1.0000 </r>
       <r>    2.0672    1.0000 </r>
       <r>    2.1984    1.0000 </r>
       <r>    2.8374    1.0000 </r>
       <r>    2.8376    1.0000 </r>
       <r>    3.1422    1.0000 </r>
       <r>    3.1424    1.0000 </r>
       <r>    3.1731    1.0000 </r>
       <r>    3.2734    1.0000 </r>
       <r>    3.6241    1.0000 </r>
       <r>    3.6246    1.0000 </r>
       <r>    3.6583    1.0000 </r>
       <r>    3.6586    1.0000 </r>
       <r>    3.6768    1.0000 </r>
       <r>    3.7382    1.0000 </r>
       <r>    3.7985    1.0000 </r>
       <r>    3.8651    1.0000 </r>
       <r>    4.6462    1.0000 </r>
       <r>    4.8827    1.0000 </r>
       <r>    4.9732    1.0000 </r>
       <r>    4.9949    1.0000 </r>
       <r>    5.0845    1.0000 </r>
       <r>    5.0846    1.0000 </r>
       <r>    5.1229    1.0000 </r>
       <r>    5.2510    1.0091 </r>
       <r>    5.4558    0.4247 </r>
       <r>    5.4565    0.4192 </r>
       <r>    5.5676   -0.0354 </r>
       <r>    5.6478   -0.0078 </r>
       <r>    5.6666   -0.0040 </r>
       <r>    5.6677   -0.0039 </r>
       <r>    5.7069   -0.0007 </r>
       <r>    5.8447    0.0000 </r>
       <r>    5.8454    0.0000 </r>
       <r>    6.2601    0.0000 </r>
       <r>    6.3750    0.0000 </r>
       <r>    7.2204    0.0000 </r>
       <r>    7.2207    0.0000 </r>
      </set>
      <set comment="kpoint 5">
       <r>    0.2588    1.0000 </r>
       <r>    0.2589    1.0000 </r>
       <r>    0.2589    1.0000 </r>
       <r>    2.1599    1.0000 </r>
       <r>    2.1599    1.0000 </r>
       <r>    2.1599    1.0000 </r>
       <r>    2.4517    1.0000 </r>
       <r>    2.6889    1.0000 </r>
       <r>    2.7143    1.0000 </r>
       <r>    2.7143    1.0000 </r>
       <r>    2.7143    1.0000 </r>
       <r>    2.7999    1.0000 </r>
       <r>    2.8000    1.0000 </r>
       <r>    3.1110    1.0000 </r>
       <r>    3.1111    1.0000 </r>
       <r>    3.4857    1.0000 </r>
       <r>    3.4858    1.0000 </r>
       <r>    3.4858    1.0000 </r>
       <r>    3.6305    1.0000 </r>
       <r>    3.6306    1.0000 </r>
       <r>    3.6306    1.0000 </r>
       <r>    4.0128    1.0000 </r>
       <r>    4.0128    1.0000 </r>
       <r>    4.0130    1.0000 </r>
       <r>    4.8202    1.0000 </r>
       <r>    4.8202    1.0000 </r>
       <r>    4.8202    1.0000 </r>
       <r>    5.0120    1.0000 </r>
       <r>    5.0121    1.0000 </r>
       <r>    5.0122    1.0000 </r>
       <r>    5.4170    0.7409 </r>
       <r>    5.4170    0.7406 </r>
       <r>    5.4172    0.7391 </r>
       <r>    5.5770   -0.0347 </r>
       <r>    5.5770   -0.0346 </r>
       <r>    5.5957   -0.0282 </r>
       <r>    5.5958   -0.0281 </r>
       <r>    5.8423    0.0000 </r>
       <r>    5.8424    0.0000 </r>
       <r>    5.8424    0.0000 </r>
       <r>    5.9584    0.0000 </r>
       <r>    5.9585    0.0000 </r>
       <r>    5.9585    0.0000 </r>
       <r>    8.5091    0.0000 </r>
      </set>
      <set comment="kpoint 6">
       <r>   -0.1776    1.0000 </r>
       <r>    1.3071    1.0000 </r>
       <r>    1.3071    1.0000 </r>
       <r>    1.3073    1.0000 </r>
       <r>    1.3073    1.0000 </r>
       <r>    1.9334    1.0000 </r>
       <r>    2.6199    1.0000 </r>
       <r>    2.6205    1.0000 </r>
       <r>    2.7127    1.0000 </r>
       <r>    2.7445    1.0000 </r>
       <r>    2.7446    1.0000 </r>
       <r>    3.2889    1.0000 </r>
       <r>    3.2890    1.0000 </r>
       <r>    3.3462    1.0000 </r>
       <r>    3.3462    1.0000 </r>
       <r>    3.3469    1.0000 </r>
       <r>    3.3469    1.0000 </r>
       <r>    3.9357    1.0000 </r>
       <r>    3.9357    1.0000 </r>
       <r>    3.9361    1.0000 </r>
       <r>    3.9361    1.0000 </r>
       <r>    4.0780    1.0000 </r>
       <r>    4.0782    1.0000 </r>
       <r>    4.2026    1.0000 </r>
       <r>    4.6328    1.0000 </r>
       <r>    4.6328    1.0000 </r>
       <r>    4.6334    1.0000 </r>
       <r>    4.6334    1.0000 </r>
       <r>    4.6668    1.0000 </r>
       <r>    4.8273    1.0000 </r>
       <r>    4.8275    1.0000 </r>
       <r>    5.5305    0.0012 </r>
       <r>    5.5305    0.0012 </r>
       <r>    5.5311    0.0000 </r>
       <r>    5.5311    0.0000 </r>
       <r>    5.5716   -0.0354 </r>
       <r>    5.6103   -0.0215 </r>
       <r>    5.6114   -0.0210 </r>
       <r>    5.6451   -0.0085 </r>
       <r>    5.6464   -0.0081 </r>
       <r>    5.8855    0.0000 </r>
       <r>    6.5042    0.0000 </r>
       <r>    6.5048    0.0000 </r>
       <r>    6.5051    0.0000 </r>
      </set>
     </set>
    </set>
   </array>
  </eigenvalues>
  <separator name="orbital magnetization" >
   <v name="MAGDIPOLOUT">      0.00000000      0.00000000      0.00000000</v>
  </separator>
  <dos>
   <i name="efermi">      5.44689629 </i>
   <total>
    <array>
     <dimension dim="1">gridpoints</dimension>
     <dimension dim="2">spin</dimension>
     <field>energy</field>
     <field>total</field>
     <field>integrated</field>
     <set>
      <set comment="spin 1">
       <r>    -3.4055     0.0000     0.0000 </r>
       <r>    -3.3625     0.0000     0.0000 </r>
       <r>    -3.3194     0.0000     0.0000 </r>
       <r>    -3.2764     0.0000     0.0000 </r>
       <r>    -3.2333     0.0000     0.0000 </r>
       <r>    -3.1903     0.0000     0.0000 </r>
       <r>    -3.1472     0.0000     0.0000 </r>
       <r>    -3.1042     0.0000     0.0000 </r>
       <r>    -3.0611     0.0000     0.0000 </r>
       <r>    -3.0181     0.0000     0.0000 </r>
       <r>    -2.9750     0.0000     0.0000 </r>
       <r>    -2.9320     0.0000     0.0000 </r>
       <r>    -2.8889     0.0000     0.0000 </r>
       <r>    -2.8459     0.0000     0.0000 </r>
       <r>    -2.8028     0.0000     0.0000 </r>
       <r>    -2.7598     0.0000     0.0000 </r>
       <r>    -2.7167    -0.0002     0.0000 </r>
       <r>    -2.6737    -0.0019    -0.0001 </r>
       <r>    -2.6306    -0.0121    -0.0006 </r>
       <r>    -2.5876    -0.0452    -0.0026 </r>
       <r>    -2.5446    -0.0805    -0.0060 </r>
       <r>    -2.5015     0.0509    -0.0038 </r>
       <r>    -2.4585     0.5867     0.0214 </r>
       <r>    -2.4154     1.3180     0.0782 </r>
       <r>    -2.3724     1.5134     0.1433 </r>
       <r>    -2.3293     0.9382     0.1837 </r>
       <r>    -2.2863     0.2419     0.1941 </r>
       <r>    -2.2432    -0.0579     0.1916 </r>
       <r>    -2.2002    -0.0666     0.1888 </r>
       <r>    -2.1571    -0.0238     0.1877 </r>
       <r>    -2.1141    -0.0050     0.1875 </r>
       <r>    -2.0710    -0.0031     0.1874 </r>
       <r>    -2.0280    -0.0155     0.1867 </r>
       <r>    -1.9849    -0.0587     0.1842 </r>
       <r>    -1.9419    -0.1073     0.1796 </r>
       <r>    -1.8988     0.0572     0.1820 </r>
       <r>    -1.8558     0.7565     0.2146 </r>
       <r>    -1.8127     1.7364     0.2894 </r>
       <r>    -1.7697     2.0261     0.3766 </r>
       <r>    -1.7266     1.2781     0.4316 </r>
       <r>    -1.6836     0.3413     0.4463 </r>
       <r>    -1.6405    -0.0733     0.4431 </r>
       <r>    -1.5975    -0.0904     0.4392 </r>
       <r>    -1.5544    -0.0332     0.4378 </r>
       <r>    -1.5114    -0.0109     0.4373 </r>
       <r>    -1.4683    -0.0311     0.4360 </r>
       <r>    -1.4253    -0.1322     0.4303 </r>
       <r>    -1.3822    -0.3055     0.4172 </r>
       <r>    -1.3392    -0.0786     0.4138 </r>
       <r>    -1.2961     1.5702     0.4814 </r>
       <r>    -1.2531     4.5295     0.6764 </r>
       <r>    -1.2100     6.1866     0.9427 </r>
       <r>    -1.1670     4.5967     1.1406 </r>
       <r>    -1.1239     1.6306     1.2108 </r>
       <r>    -1.0809    -0.0600     1.2082 </r>
       <r>    -1.0378    -0.3081     1.1949 </r>
       <r>    -0.9948    -0.1359     1.1891 </r>
       <r>    -0.9517    -0.0315     1.1877 </r>
       <r>    -0.9087    -0.0045     1.1875 </r>
       <r>    -0.8656    -0.0004     1.1875 </r>
       <r>    -0.8226     0.0000     1.1875 </r>
       <r>    -0.7795     0.0000     1.1875 </r>
       <r>    -0.7365     0.0000     1.1875 </r>
       <r>    -0.6934     0.0000     1.1875 </r>
       <r>    -0.6504     0.0000     1.1875 </r>
       <r>    -0.6074     0.0000     1.1875 </r>
       <r>    -0.5643     0.0000     1.1875 </r>
       <r>    -0.5213    -0.0004     1.1875 </r>
       <r>    -0.4782    -0.0048     1.1873 </r>
       <r>    -0.4352    -0.0342     1.1858 </r>
       <r>    -0.3921    -0.1521     1.1793 </r>
       <r>    -0.3491    -0.3639     1.1636 </r>
       <r>    -0.3060    -0.1415     1.1575 </r>
       <r>    -0.2630     1.7484     1.2328 </r>
       <r>    -0.2199     5.3440     1.4628 </r>
       <r>    -0.1769     7.6296     1.7913 </r>
       <r>    -0.1338     5.9836     2.0488 </r>
       <r>    -0.0908     2.3401     2.1496 </r>
       <r>    -0.0477     0.0545     2.1519 </r>
       <r>    -0.0047    -0.3920     2.1351 </r>
       <r>     0.0384    -0.2460     2.1245 </r>
       <r>     0.0814    -0.2485     2.1138 </r>
       <r>     0.1245    -0.3239     2.0998 </r>
       <r>     0.1675     0.3473     2.1148 </r>
       <r>     0.2106     2.6674     2.2296 </r>
       <r>     0.2536     5.5072     2.4667 </r>
       <r>     0.2967     5.9029     2.7208 </r>
       <r>     0.3397     3.3000     2.8629 </r>
       <r>     0.3828     0.4598     2.8827 </r>
       <r>     0.4258    -0.4171     2.8647 </r>
       <r>     0.4689     1.0849     2.9114 </r>
       <r>     0.5119     4.1651     3.0907 </r>
       <r>     0.5550     6.1498     3.3554 </r>
       <r>     0.5980     4.8613     3.5647 </r>
       <r>     0.6411     1.8869     3.6459 </r>
       <r>     0.6841     0.0254     3.6470 </r>
       <r>     0.7272    -0.3169     3.6334 </r>
       <r>     0.7702    -0.1519     3.6269 </r>
       <r>     0.8133    -0.0371     3.6253 </r>
       <r>     0.8563    -0.0055     3.6250 </r>
       <r>     0.8994    -0.0006     3.6250 </r>
       <r>     0.9424    -0.0012     3.6249 </r>
       <r>     0.9855    -0.0111     3.6245 </r>
       <r>     1.0285    -0.0686     3.6215 </r>
       <r>     1.0716    -0.2671     3.6100 </r>
       <r>     1.1146    -0.5775     3.5852 </r>
       <r>     1.1577    -0.2303     3.5752 </r>
       <r>     1.2007     2.5079     3.6832 </r>
       <r>     1.2438     8.3943     4.0446 </r>
       <r>     1.2868    14.5254     4.6699 </r>
       <r>     1.3299    16.3374     5.3732 </r>
       <r>     1.3729    13.6337     5.9601 </r>
       <r>     1.4159    10.2122     6.3997 </r>
       <r>     1.4590     7.3125     6.7145 </r>
       <r>     1.5020     4.4695     6.9069 </r>
       <r>     1.5451     4.3858     7.0957 </r>
       <r>     1.5881     8.8359     7.4761 </r>
       <r>     1.6312    12.9882     8.0352 </r>
       <r>     1.6742    11.4503     8.5282 </r>
       <r>     1.7173     6.4843     8.8073 </r>
       <r>     1.7603     3.8272     8.9721 </r>
       <r>     1.8034     4.7131     9.1749 </r>
       <r>     1.8464     6.7943     9.4674 </r>
       <r>     1.8895     9.1683     9.8621 </r>
       <r>     1.9325    11.4142    10.3535 </r>
       <r>     1.9756    12.6044    10.8961 </r>
       <r>     2.0186    14.5504    11.5225 </r>
       <r>     2.0617    17.6071    12.2804 </r>
       <r>     2.1047    17.8633    13.0494 </r>
       <r>     2.1478    15.1647    13.7023 </r>
       <r>     2.1908    12.8321    14.2547 </r>
       <r>     2.2339    11.0487    14.7303 </r>
       <r>     2.2769     8.8943    15.1132 </r>
       <r>     2.3200     6.2453    15.3820 </r>
       <r>     2.3630     3.3962    15.5282 </r>
       <r>     2.4061     2.5094    15.6363 </r>
       <r>     2.4491     4.8004    15.8429 </r>
       <r>     2.4922     7.0440    16.1462 </r>
       <r>     2.5352     6.1291    16.4100 </r>
       <r>     2.5783     4.7700    16.6154 </r>
       <r>     2.6213     7.3017    16.9297 </r>
       <r>     2.6644    12.5650    17.4706 </r>
       <r>     2.7074    16.2425    18.1698 </r>
       <r>     2.7505    18.2748    18.9565 </r>
       <r>     2.7935    22.1557    19.9103 </r>
       <r>     2.8366    25.4662    21.0066 </r>
       <r>     2.8796    21.5017    21.9322 </r>
       <r>     2.9227    13.6387    22.5194 </r>
       <r>     2.9657    11.3737    23.0090 </r>
       <r>     3.0088    14.0350    23.6132 </r>
       <r>     3.0518    16.5912    24.3274 </r>
       <r>     3.0949    21.8430    25.2677 </r>
       <r>     3.1379    29.8611    26.5532 </r>
       <r>     3.1810    30.5568    27.8686 </r>
       <r>     3.2240    22.1966    28.8242 </r>
       <r>     3.2671    17.4436    29.5751 </r>
       <r>     3.3101    20.9427    30.4767 </r>
       <r>     3.3531    22.1278    31.4292 </r>
       <r>     3.3962    15.2174    32.0843 </r>
       <r>     3.4392     8.2473    32.4394 </r>
       <r>     3.4823     7.7025    32.7710 </r>
       <r>     3.5253    10.0842    33.2051 </r>
       <r>     3.5684    14.1423    33.8139 </r>
       <r>     3.6114    23.7368    34.8357 </r>
       <r>     3.6545    33.7909    36.2904 </r>
       <r>     3.6975    34.4277    37.7725 </r>
       <r>     3.7406    28.7356    39.0095 </r>
       <r>     3.7836    25.8320    40.1215 </r>
       <r>     3.8267    24.6379    41.1822 </r>
       <r>     3.8697    20.4471    42.0624 </r>
       <r>     3.9128    16.2239    42.7608 </r>
       <r>     3.9558    16.5234    43.4721 </r>
       <r>     3.9989    18.7875    44.2809 </r>
       <r>     4.0419    17.2791    45.0248 </r>
       <r>     4.0850    11.1705    45.5056 </r>
       <r>     4.1280     4.7890    45.7118 </r>
       <r>     4.1711     1.5910    45.7803 </r>
       <r>     4.2141     1.0237    45.8244 </r>
       <r>     4.2572     0.8993    45.8631 </r>
       <r>     4.3002     0.4003    45.8803 </r>
       <r>     4.3433    -0.0513    45.8781 </r>
       <r>     4.3863    -0.2624    45.8668 </r>
       <r>     4.4294    -0.3886    45.8501 </r>
       <r>     4.4724    -0.2852    45.8378 </r>
       <r>     4.5155     1.0324    45.8822 </r>
       <r>     4.5585     5.5704    46.1220 </r>
       <r>     4.6016    13.5681    46.7061 </r>
       <r>     4.6446    19.2065    47.5330 </r>
       <r>     4.6877    15.9891    48.2213 </r>
       <r>     4.7307     7.7963    48.5569 </r>
       <r>     4.7738     4.5079    48.7510 </r>
       <r>     4.8168     8.0169    49.0961 </r>
       <r>     4.8599    12.0075    49.6130 </r>
       <r>     4.9029    13.4461    50.1918 </r>
       <r>     4.9460    15.8444    50.8739 </r>
       <r>     4.9890    20.6581    51.7632 </r>
       <r>     5.0321    24.3392    52.8110 </r>
       <r>     5.0751    24.5160    53.8664 </r>
       <r>     5.1182    21.1986    54.7790 </r>
       <r>     5.1612    16.3995    55.4849 </r>
       <r>     5.2043    15.3420    56.1454 </r>
       <r>     5.2473    20.8659    57.0437 </r>
       <r>     5.2903    29.8244    58.3276 </r>
       <r>     5.3334    36.6800    59.9066 </r>
       <r>     5.3764    37.8366    61.5354 </r>
       <r>     5.4195    35.4980    63.0636 </r>
       <r>     5.4625    34.1605    64.5341 </r>
       <r>     5.5056    35.2689    66.0524 </r>
       <r>     5.5486    39.7453    67.7634 </r>
       <r>     5.5917    45.9507    69.7415 </r>
       <r>     5.6347    46.9733    71.7637 </r>
       <r>     5.6778    38.3254    73.4136 </r>
       <r>     5.7208    24.2092    74.4557 </r>
       <r>     5.7639    15.1334    75.1072 </r>
       <r>     5.8069    17.1739    75.8465 </r>
       <r>     5.8500    22.7428    76.8256 </r>
       <r>     5.8930    20.9974    77.7295 </r>
       <r>     5.9361    13.3345    78.3035 </r>
       <r>     5.9791     7.4323    78.6235 </r>
       <r>     6.0222     5.8487    78.8753 </r>
       <r>     6.0652     7.7697    79.2097 </r>
       <r>     6.1083    11.5278    79.7060 </r>
       <r>     6.1513    14.2319    80.3187 </r>
       <r>     6.1944    14.2882    80.9338 </r>
       <r>     6.2374    12.3433    81.4651 </r>
       <r>     6.2805     9.3730    81.8686 </r>
       <r>     6.3235     6.7950    82.1611 </r>
       <r>     6.3666     6.5603    82.4436 </r>
       <r>     6.4096     9.0722    82.8341 </r>
       <r>     6.4527    12.8472    83.3872 </r>
       <r>     6.4957    14.7767    84.0233 </r>
       <r>     6.5388    11.8014    84.5313 </r>
       <r>     6.5818     5.4715    84.7669 </r>
       <r>     6.6249     0.5701    84.7914 </r>
       <r>     6.6679    -0.9494    84.7505 </r>
       <r>     6.7110     0.0644    84.7533 </r>
       <r>     6.7540     2.8412    84.8756 </r>
       <r>     6.7971     5.5852    85.1161 </r>
       <r>     6.8401     5.4726    85.3516 </r>
       <r>     6.8832     2.9007    85.4765 </r>
       <r>     6.9262     1.7750    85.5529 </r>
       <r>     6.9693     3.7765    85.7155 </r>
       <r>     7.0123     5.7435    85.9628 </r>
       <r>     7.0554     4.4061    86.1524 </r>
       <r>     7.0984     1.4873    86.2165 </r>
       <r>     7.1415     1.7334    86.2911 </r>
       <r>     7.1845     6.7697    86.5825 </r>
       <r>     7.2276    11.8011    87.0905 </r>
       <r>     7.2706    10.8072    87.5558 </r>
       <r>     7.3136     5.0835    87.7746 </r>
       <r>     7.3567     0.5812    87.7996 </r>
       <r>     7.3997    -0.6391    87.7721 </r>
       <r>     7.4428    -0.3865    87.7555 </r>
       <r>     7.4858    -0.1075    87.7509 </r>
       <r>     7.5289    -0.0178    87.7501 </r>
       <r>     7.5719    -0.0019    87.7500 </r>
       <r>     7.6150    -0.0001    87.7500 </r>
       <r>     7.6580     0.0000    87.7500 </r>
       <r>     7.7011     0.0000    87.7500 </r>
       <r>     7.7441     0.0000    87.7500 </r>
       <r>     7.7872     0.0000    87.7500 </r>
       <r>     7.8302     0.0000    87.7500 </r>
       <r>     7.8733     0.0000    87.7500 </r>
       <r>     7.9163     0.0000    87.7500 </r>
       <r>     7.9594     0.0000    87.7500 </r>
       <r>     8.0024     0.0000    87.7500 </r>
       <r>     8.0455     0.0000    87.7500 </r>
       <r>     8.0885     0.0000    87.7500 </r>
       <r>     8.1316     0.0000    87.7500 </r>
       <r>     8.1746    -0.0001    87.7500 </r>
       <r>     8.2177    -0.0008    87.7500 </r>
       <r>     8.2607    -0.0063    87.7497 </r>
       <r>     8.3038    -0.0317    87.7483 </r>
       <r>     8.3468    -0.0889    87.7445 </r>
       <r>     8.3899    -0.0772    87.7412 </r>
       <r>     8.4329     0.3226    87.7551 </r>
       <r>     8.4760     1.2509    87.8089 </r>
       <r>     8.5190     2.0179    87.8958 </r>
       <r>     8.5621     1.7574    87.9714 </r>
       <r>     8.6051     0.7822    88.0051 </r>
       <r>     8.6482     0.0679    88.0080 </r>
       <r>     8.6912    -0.1073    88.0034 </r>
       <r>     8.7343    -0.0603    88.0008 </r>
       <r>     8.7773    -0.0161    88.0001 </r>
       <r>     8.8204    -0.0026    88.0000 </r>
       <r>     8.8634    -0.0003    88.0000 </r>
       <r>     8.9065     0.0000    88.0000 </r>
       <r>     8.9495     0.0000    88.0000 </r>
       <r>     8.9926     0.0000    88.0000 </r>
       <r>     9.0356     0.0000    88.0000 </r>
       <r>     9.0787     0.0000    88.0000 </r>
       <r>     9.1217     0.0000    88.0000 </r>
       <r>     9.1648     0.0000    88.0000 </r>
       <r>     9.2078     0.0000    88.0000 </r>
       <r>     9.2508     0.0000    88.0000 </r>
       <r>     9.2939     0.0000    88.0000 </r>
       <r>     9.3369     0.0000    88.0000 </r>
       <r>     9.3800     0.0000    88.0000 </r>
       <r>     9.4230     0.0000    88.0000 </r>
       <r>     9.4661     0.0000    88.0000 </r>
       <r>     9.5091     0.0000    88.0000 </r>
      </set>
     </set>
    </array>
   </total>
   <partial>
    <array>
     <dimension dim="1">gridpoints</dimension>
     <dimension dim="2">spin</dimension>
     <dimension dim="3">ion</dimension>
     <field>energy</field>
     <field>  s</field>
     <field> py</field>
     <field> pz</field>
     <field> px</field>
     <field>dxy</field>
     <field>dyz</field>
     <field>dz2</field>
     <field>dxz</field>
     <field>dx2</field>
     <set>
      <set comment="ion 1">
       <set comment="spin 1">
        <r>    -3.4055     0.0000     0.0000     0.0000     0.0000     0.0000     0.0000     0.0000     0.0000     0.0000 </r>
        <r>    -3.3625     0.0000     0.0000     0.0000     0.0000     0.0000     0.0000     0.0000     0.0000     0.0000 </r>
        <r>    -3.3194     0.0000     0.0000     0.0000     0.0000     0.0000     0.0000     0.0000     0.0000     0.0000 </r>
        <r>    -3.2764     0.0000     0.0000     0.0000     0.0000     0.0000     0.0000     0.0000     0.0000     0.0000 </r>
        <r>    -3.2333     0.0000     0.0000     0.0000     0.0000     0.0000     0.0000     0.0000     0.0000     0.0000 </r>
        <r>    -3.1903     0.0000     0.0000     0.0000     0.0000     0.0000     0.0000     0.0000     0.0000     0.0000 </r>
        <r>    -3.1472     0.0000     0.0000     0.0000     0.0000     0.0000     0.0000     0.0000     0.0000     0.0000 </r>
        <r>    -3.1042     0.0000     0.0000     0.0000     0.0000     0.0000     0.0000     0.0000     0.0000     0.0000 </r>
        <r>    -3.0611     0.0000     0.0000     0.0000     0.0000     0.0000     0.0000     0.0000     0.0000     0.0000 </r>
        <r>    -3.0181     0.0000     0.0000     0.0000     0.0000     0.0000     0.0000     0.0000     0.0000     0.0000 </r>
        <r>    -2.9750     0.0000     0.0000     0.0000     0.0000     0.0000     0.0000     0.0000     0.0000     0.0000 </r>
        <r>    -2.9320     0.0000     0.0000     0.0000     0.0000     0.0000     0.0000     0.0000     0.0000     0.0000 </r>
        <r>    -2.8889     0.0000     0.0000     0.0000     0.0000     0.0000     0.0000     0.0000     0.0000     0.0000 </r>
        <r>    -2.8459     0.0000     0.0000     0.0000     0.0000     0.0000     0.0000     0.0000     0.0000     0.0000 </r>
        <r>    -2.8028     0.0000     0.0000     0.0000     0.0000     0.0000     0.0000     0.0000     0.0000     0.0000 </r>
        <r>    -2.7598     0.0000     0.0000     0.0000     0.0000     0.0000     0.0000     0.0000     0.0000     0.0000 </r>
        <r>    -2.7167     0.0000     0.0000     0.0000     0.0000     0.0000     0.0000     0.0000     0.0000     0.0000 </r>
        <r>    -2.6737    -0.0002     0.0000     0.0000     0.0000     0.0000     0.0000     0.0000     0.0000     0.0000 </r>
        <r>    -2.6306    -0.0010     0.0000     0.0000     0.0000     0.0000     0.0000     0.0000     0.0000     0.0000 </r>
        <r>    -2.5876    -0.0038     0.0000    -0.0001     0.0000     0.0000     0.0000     0.0000     0.0000     0.0000 </r>
        <r>    -2.5446    -0.0068     0.0000    -0.0001    -0.0001     0.0000     0.0000     0.0000     0.0000     0.0000 </r>
        <r>    -2.5015     0.0043     0.0000     0.0001     0.0000     0.0000     0.0000     0.0000     0.0000     0.0000 </r>
        <r>    -2.4585     0.0496     0.0003     0.0008     0.0005     0.0000     0.0000     0.0000     0.0000     0.0000 </r>
        <r>    -2.4154     0.1114     0.0006     0.0018     0.0012     0.0000     0.0000     0.0000     0.0000     0.0000 </r>
        <r>    -2.3724     0.1279     0.0007     0.0020     0.0013     0.0000     0.0000     0.0000     0.0000     0.0000 </r>
        <r>    -2.3293     0.0793     0.0004     0.0012     0.0008     0.0000     0.0000     0.0000     0.0000     0.0000 </r>
        <r>    -2.2863     0.0204     0.0001     0.0003     0.0002     0.0000     0.0000     0.0000     0.0000     0.0000 </r>
        <r>    -2.2432    -0.0049     0.0000    -0.0001    -0.0001     0.0000     0.0000     0.0000     0.0000     0.0000 </r>
        <r>    -2.2002    -0.0056     0.0000    -0.0001    -0.0001     0.0000     0.0000     0.0000     0.0000     0.0000 </r>
        <r>    -2.1571    -0.0020     0.0000     0.0000     0.0000     0.0000     0.0000     0.0000     0.0000     0.0000 </r>
        <r>    -2.1141    -0.0004     0.0000     0.0000     0.0000     0.0000     0.0000     0.0000     0.0000     0.0000 </r>
        <r>    -2.0710    -0.0002     0.0000     0.0000     0.0000     0.0000     0.0000     0.0000     0.0000     0.0000 </r>
        <r>    -2.0280    -0.0012     0.0000    -0.0001     0.0000     0.0000     0.0000     0.0000     0.0000     0.0000 </r>
        <r>    -1.9849    -0.0046    -0.0001    -0.0003     0.0000     0.0000     0.0000     0.0000     0.0000     0.0000 </r>
        <r>    -1.9419    -0.0085    -0.0002    -0.0005    -0.0001     0.0000     0.0000     0.0000     0.0000     0.0000 </r>
        <r>    -1.8988     0.0045     0.0001     0.0003     0.0000     0.0000     0.0000     0.0000     0.0000     0.0000 </r>
        <r>    -1.8558     0.0599     0.0013     0.0038     0.0006     0.0000     0.0002     0.0001     0.0001     0.0000 </r>
        <r>    -1.8127     0.1375     0.0029     0.0087     0.0014     0.0001     0.0006     0.0003     0.0003     0.0000 </r>
        <r>    -1.7697     0.1604     0.0034     0.0102     0.0017     0.0001     0.0006     0.0004     0.0003     0.0000 </r>
        <r>    -1.7266     0.1012     0.0021     0.0064     0.0011     0.0001     0.0004     0.0002     0.0002     0.0000 </r>
        <r>    -1.6836     0.0270     0.0006     0.0017     0.0003     0.0000     0.0001     0.0001     0.0001     0.0000 </r>
        <r>    -1.6405    -0.0058    -0.0001    -0.0004    -0.0001     0.0000     0.0000     0.0000     0.0000     0.0000 </r>
        <r>    -1.5975    -0.0072    -0.0002    -0.0005    -0.0001     0.0000     0.0000     0.0000     0.0000     0.0000 </r>
        <r>    -1.5544    -0.0026    -0.0001    -0.0002     0.0000     0.0000     0.0000     0.0000     0.0000     0.0000 </r>
        <r>    -1.5114    -0.0008     0.0000     0.0000     0.0000     0.0000     0.0000     0.0000     0.0000     0.0000 </r>
        <r>    -1.4683    -0.0023    -0.0001     0.0000    -0.0002     0.0000     0.0000     0.0000     0.0000     0.0000 </r>
        <r>    -1.4253    -0.0097    -0.0005    -0.0002    -0.0009    -0.0002     0.0000     0.0000     0.0000     0.0000 </r>
        <r>    -1.3822    -0.0225    -0.0011    -0.0004    -0.0022    -0.0004     0.0000    -0.0001    -0.0001     0.0000 </r>
        <r>    -1.3392    -0.0058    -0.0003    -0.0001    -0.0006    -0.0001     0.0000     0.0000     0.0000     0.0000 </r>
        <r>    -1.2961     0.1155     0.0056     0.0020     0.0111     0.0020     0.0002     0.0006     0.0005     0.0003 </r>
        <r>    -1.2531     0.3331     0.0160     0.0058     0.0320     0.0058     0.0007     0.0017     0.0014     0.0007 </r>
        <r>    -1.2100     0.4550     0.0219     0.0079     0.0438     0.0079     0.0010     0.0023     0.0019     0.0010 </r>
        <r>    -1.1670     0.3381     0.0163     0.0059     0.0325     0.0059     0.0007     0.0017     0.0014     0.0007 </r>
        <r>    -1.1239     0.1199     0.0058     0.0021     0.0115     0.0021     0.0003     0.0006     0.0005     0.0003 </r>
        <r>    -1.0809    -0.0044    -0.0002    -0.0001    -0.0004    -0.0001     0.0000     0.0000     0.0000     0.0000 </r>
        <r>    -1.0378    -0.0227    -0.0011    -0.0004    -0.0022    -0.0004     0.0000    -0.0001    -0.0001     0.0000 </r>
        <r>    -0.9948    -0.0100    -0.0005    -0.0002    -0.0010    -0.0002     0.0000    -0.0001     0.0000     0.0000 </r>
        <r>    -0.9517    -0.0023    -0.0001     0.0000    -0.0002     0.0000     0.0000     0.0000     0.0000     0.0000 </r>
        <r>    -0.9087    -0.0003     0.0000     0.0000     0.0000     0.0000     0.0000     0.0000     0.0000     0.0000 </r>
        <r>    -0.8656     0.0000     0.0000     0.0000     0.0000     0.0000     0.0000     0.0000     0.0000     0.0000 </r>
        <r>    -0.8226     0.0000     0.0000     0.0000     0.0000     0.0000     0.0000     0.0000     0.0000     0.0000 </r>
        <r>    -0.7795     0.0000     0.0000     0.0000     0.0000     0.0000     0.0000     0.0000     0.0000     0.0000 </r>
        <r>    -0.7365     0.0000     0.0000     0.0000     0.0000     0.0000     0.0000     0.0000     0.0000     0.0000 </r>
        <r>    -0.6934     0.0000     0.0000     0.0000     0.0000     0.0000     0.0000     0.0000     0.0000     0.0000 </r>
        <r>    -0.6504     0.0000     0.0000     0.0000     0.0000     0.0000     0.0000     0.0000     0.0000     0.0000 </r>
        <r>    -0.6074     0.0000     0.0000     0.0000     0.0000     0.0000     0.0000     0.0000     0.0000     0.0000 </r>
        <r>    -0.5643     0.0000     0.0000     0.0000     0.0000     0.0000     0.0000     0.0000     0.0000     0.0000 </r>
        <r>    -0.5213     0.0000     0.0000     0.0000     0.0000     0.0000     0.0000     0.0000     0.0000     0.0000 </r>
        <r>    -0.4782    -0.0003     0.0000     0.0000    -0.0001     0.0000     0.0000     0.0000     0.0000     0.0000 </r>
        <r>    -0.4352    -0.0021    -0.0001    -0.0002    -0.0004     0.0000     0.0000     0.0000    -0.0001    -0.0001 </r>
        <r>    -0.3921    -0.0095    -0.0003    -0.0009    -0.0016    -0.0002    -0.0002    -0.0001    -0.0005    -0.0004 </r>
        <r>    -0.3491    -0.0227    -0.0007    -0.0021    -0.0038    -0.0004    -0.0004    -0.0002    -0.0012    -0.0008 </r>
        <r>    -0.3060    -0.0087    -0.0004    -0.0011    -0.0013    -0.0002    -0.0002    -0.0001    -0.0005    -0.0002 </r>
        <r>    -0.2630     0.1090     0.0032     0.0096     0.0191     0.0019     0.0019     0.0011     0.0058     0.0044 </r>
        <r>    -0.2199     0.3327     0.0103     0.0309     0.0567     0.0059     0.0059     0.0033     0.0178     0.0125 </r>
        <r>    -0.1769     0.4746     0.0153     0.0458     0.0795     0.0085     0.0087     0.0047     0.0254     0.0170 </r>
        <r>    -0.1338     0.3718     0.0125     0.0374     0.0610     0.0067     0.0071     0.0036     0.0200     0.0126 </r>
        <r>    -0.0908     0.1452     0.0052     0.0156     0.0230     0.0026     0.0029     0.0014     0.0079     0.0044 </r>
        <r>    -0.0477     0.0033     0.0003     0.0009     0.0000     0.0001     0.0001     0.0000     0.0002    -0.0002 </r>
        <r>    -0.0047    -0.0243    -0.0008    -0.0024    -0.0041    -0.0005    -0.0005    -0.0002    -0.0013    -0.0009 </r>
        <r>     0.0384    -0.0149    -0.0009    -0.0015    -0.0024    -0.0004    -0.0004    -0.0002    -0.0008    -0.0005 </r>
        <r>     0.0814    -0.0141    -0.0017    -0.0011    -0.0023    -0.0009    -0.0007    -0.0003    -0.0008    -0.0004 </r>
        <r>     0.1245    -0.0181    -0.0025    -0.0013    -0.0029    -0.0013    -0.0011    -0.0004    -0.0010    -0.0006 </r>
        <r>     0.1675     0.0194     0.0028     0.0014     0.0031     0.0014     0.0011     0.0004     0.0011     0.0006 </r>
        <r>     0.2106     0.1486     0.0213     0.0104     0.0240     0.0108     0.0088     0.0030     0.0085     0.0046 </r>
        <r>     0.2536     0.3068     0.0440     0.0215     0.0496     0.0222     0.0182     0.0061     0.0176     0.0094 </r>
        <r>     0.2967     0.3290     0.0472     0.0231     0.0532     0.0235     0.0196     0.0064     0.0189     0.0101 </r>
        <r>     0.3397     0.1847     0.0267     0.0132     0.0295     0.0116     0.0112     0.0031     0.0108     0.0056 </r>
        <r>     0.3828     0.0278     0.0044     0.0026     0.0036    -0.0025     0.0024    -0.0008     0.0022     0.0006 </r>
        <r>     0.4258    -0.0221    -0.0029    -0.0012    -0.0040    -0.0038    -0.0010    -0.0011    -0.0010    -0.0008 </r>
        <r>     0.4689     0.0504     0.0052     0.0005     0.0121     0.0241    -0.0003     0.0070     0.0002     0.0027 </r>
        <r>     0.5119     0.2001     0.0222     0.0045     0.0450     0.0796     0.0014     0.0230     0.0030     0.0098 </r>
        <r>     0.5550     0.2962     0.0330     0.0069     0.0662     0.1160     0.0023     0.0335     0.0047     0.0145 </r>
        <r>     0.5980     0.2342     0.0261     0.0055     0.0523     0.0915     0.0019     0.0264     0.0038     0.0114 </r>
        <r>     0.6411     0.0909     0.0102     0.0021     0.0203     0.0355     0.0007     0.0103     0.0015     0.0044 </r>
        <r>     0.6841     0.0012     0.0001     0.0000     0.0003     0.0005     0.0000     0.0001     0.0000     0.0001 </r>
        <r>     0.7272    -0.0153    -0.0017    -0.0004    -0.0034    -0.0060    -0.0001    -0.0017    -0.0002    -0.0007 </r>
        <r>     0.7702    -0.0073    -0.0008    -0.0002    -0.0016    -0.0029    -0.0001    -0.0008    -0.0001    -0.0004 </r>
        <r>     0.8133    -0.0018    -0.0002     0.0000    -0.0004    -0.0007     0.0000    -0.0002     0.0000    -0.0001 </r>
        <r>     0.8563    -0.0003     0.0000     0.0000    -0.0001    -0.0001     0.0000     0.0000     0.0000     0.0000 </r>
        <r>     0.8994     0.0000     0.0000     0.0000     0.0000     0.0000     0.0000     0.0000     0.0000     0.0000 </r>
        <r>     0.9424     0.0000     0.0000     0.0000     0.0000     0.0000     0.0000     0.0000     0.0000     0.0000 </r>
        <r>     0.9855    -0.0003     0.0000     0.0000     0.0000     0.0000    -0.0001    -0.0002    -0.0001    -0.0002 </r>
        <r>     1.0285    -0.0020    -0.0003    -0.0002    -0.0003    -0.0003    -0.0007    -0.0014    -0.0006    -0.0010 </r>
        <r>     1.0716    -0.0078    -0.0011    -0.0008    -0.0011    -0.0017    -0.0028    -0.0054    -0.0025    -0.0036 </r>
        <r>     1.1146    -0.0167    -0.0027    -0.0019    -0.0025    -0.0054    -0.0056    -0.0108    -0.0053    -0.0070 </r>
        <r>     1.1577    -0.0057    -0.0020    -0.0011    -0.0012    -0.0092    -0.0006    -0.0016    -0.0016     0.0006 </r>
        <r>     1.2007     0.0747     0.0090     0.0072     0.0102     0.0051     0.0284     0.0547     0.0243     0.0396 </r>
        <r>     1.2438     0.2426     0.0363     0.0259     0.0359     0.0677     0.0839     0.1645     0.0778     0.1087 </r>
        <r>     1.2868     0.4129     0.0696     0.0470     0.0633     0.1685     0.1332     0.2666     0.1301     0.1631 </r>
        <r>     1.3299     0.4675     0.0886     0.0591     0.0709     0.2267     0.1375     0.2805     0.1395     0.1578 </r>
        <r>     1.3729     0.4110     0.0895     0.0627     0.0554     0.1907     0.1082     0.2067     0.1103     0.1125 </r>
        <r>     1.4159     0.3287     0.0791     0.0609     0.0342     0.1145     0.0914     0.1179     0.0885     0.0872 </r>
        <r>     1.4590     0.2301     0.0534     0.0458     0.0175     0.0586     0.0899     0.0560     0.0833     0.0901 </r>
        <r>     1.5020     0.1212     0.0235     0.0216     0.0073     0.0287     0.0808     0.0198     0.0703     0.0815 </r>
        <r>     1.5451     0.1032     0.0246     0.0102     0.0120     0.0343     0.1064     0.0178     0.0758     0.0664 </r>
        <r>     1.5881     0.2123     0.0628     0.0187     0.0323     0.0872     0.2084     0.0517     0.1430     0.0808 </r>
        <r>     1.6312     0.2979     0.0907     0.0283     0.0463     0.1500     0.2945     0.0872     0.2235     0.1004 </r>
        <r>     1.6742     0.2276     0.0700     0.0228     0.0360     0.1688     0.2508     0.0878     0.2265     0.0799 </r>
        <r>     1.7173     0.0875     0.0262     0.0101     0.0137     0.1475     0.1309     0.0554     0.1553     0.0474 </r>
        <r>     1.7603     0.0249     0.0011     0.0058     0.0000     0.1423     0.0639     0.0158     0.0941     0.0647 </r>
        <r>     1.8034     0.0459    -0.0009     0.0108    -0.0015     0.1743     0.0721     0.0062     0.0861     0.1202 </r>
        <r>     1.8464     0.0766     0.0051     0.0173     0.0055     0.2020     0.0895     0.0917     0.1065     0.1371 </r>
        <r>     1.8895     0.0877     0.0128     0.0235     0.0199     0.2156     0.0851     0.2982     0.1408     0.0906 </r>
        <r>     1.9325     0.0871     0.0191     0.0297     0.0339     0.2419     0.0827     0.4848     0.1861     0.0389 </r>
        <r>     1.9756     0.0830     0.0205     0.0372     0.0370     0.2695     0.1309     0.4856     0.2290     0.0403 </r>
        <r>     2.0186     0.1020     0.0208     0.0543     0.0340     0.2835     0.2857     0.3692     0.2954     0.1097 </r>
        <r>     2.0617     0.1495     0.0255     0.0782     0.0346     0.2706     0.4790     0.2797     0.3803     0.1955 </r>
        <r>     2.1047     0.1731     0.0332     0.0905     0.0368     0.2221     0.5178     0.2242     0.4107     0.2053 </r>
        <r>     2.1478     0.1438     0.0385     0.0884     0.0360     0.1883     0.3854     0.1883     0.4053     0.1308 </r>
        <r>     2.1908     0.0907     0.0348     0.0780     0.0309     0.1899     0.2695     0.1719     0.4196     0.0603 </r>
        <r>     2.2339     0.0445     0.0213     0.0566     0.0241     0.1693     0.2663     0.1374     0.3928     0.0527 </r>
        <r>     2.2769     0.0178     0.0082     0.0306     0.0216     0.1097     0.3116     0.0782     0.2872     0.0849 </r>
        <r>     2.3200     0.0075     0.0022     0.0127     0.0199     0.0510     0.2918     0.0279     0.1639     0.0952 </r>
        <r>     2.3630     0.0044     0.0007     0.0044     0.0126     0.0177     0.1837     0.0098     0.0736     0.0608 </r>
        <r>     2.4061     0.0139     0.0022     0.0043     0.0053     0.0230     0.1133     0.0463     0.0419     0.0290 </r>
        <r>     2.4491     0.0419     0.0072     0.0117     0.0053     0.0680     0.1606     0.1353     0.0660     0.0420 </r>
        <r>     2.4922     0.0659     0.0108     0.0184     0.0091     0.1042     0.2195     0.1973     0.0883     0.0727 </r>
        <r>     2.5352     0.0580     0.0102     0.0176     0.0100     0.0900     0.1846     0.1576     0.0704     0.0834 </r>
        <r>     2.5783     0.0312     0.0177     0.0202     0.0098     0.0913     0.1222     0.0753     0.0609     0.0952 </r>
        <r>     2.6213     0.0202     0.0455     0.0391     0.0127     0.2045     0.1353     0.0768     0.1247     0.1274 </r>
        <r>     2.6644     0.0297     0.0751     0.0633     0.0168     0.3769     0.2054     0.1899     0.2447     0.1451 </r>
        <r>     2.7074     0.0364     0.0773     0.0681     0.0222     0.4545     0.2582     0.3413     0.3337     0.1618 </r>
        <r>     2.7505     0.0261     0.0584     0.0512     0.0382     0.4222     0.2844     0.4989     0.3399     0.2956 </r>
        <r>     2.7935     0.0091     0.0467     0.0333     0.0712     0.4153     0.3293     0.6916     0.3126     0.5922 </r>
        <r>     2.8366    -0.0004     0.0450     0.0250     0.0981     0.4481     0.3645     0.8103     0.2908     0.8238 </r>
        <r>     2.8796    -0.0018     0.0354     0.0175     0.0843     0.3850     0.3030     0.6698     0.2273     0.7419 </r>
        <r>     2.9227    -0.0010     0.0163     0.0073     0.0405     0.2446     0.2027     0.4008     0.1349     0.5322 </r>
        <r>     2.9657    -0.0008     0.0023     0.0010     0.0111     0.1834     0.2050     0.3136     0.1031     0.5243 </r>
        <r>     3.0088    -0.0012     0.0012     0.0008     0.0127     0.2073     0.2799     0.3989     0.1322     0.6276 </r>
        <r>     3.0518     0.0004     0.0142     0.0094     0.0334     0.2320     0.3472     0.4552     0.1971     0.6472 </r>
        <r>     3.0949     0.0075     0.0392     0.0414     0.0629     0.2648     0.4986     0.4810     0.3803     0.7287 </r>
        <r>     3.1379     0.0186     0.0576     0.0979     0.0836     0.2980     0.7390     0.5198     0.6576     0.9188 </r>
        <r>     3.1810     0.0234     0.0505     0.1352     0.0732     0.2481     0.8284     0.4502     0.7670     0.8804 </r>
        <r>     3.2240     0.0165     0.0331     0.1147     0.0435     0.1465     0.7278     0.2773     0.6313     0.5220 </r>
        <r>     3.2671     0.0060     0.0359     0.0710     0.0309     0.1641     0.6777     0.2313     0.5561     0.2229 </r>
        <r>     3.3101     0.0012     0.0544     0.0541     0.0396     0.3317     0.6834     0.3646     0.6892     0.1886 </r>
        <r>     3.3531     0.0012     0.0565     0.0522     0.0414     0.4353     0.5425     0.4342     0.7450     0.2225 </r>
        <r>     3.3962     0.0014     0.0340     0.0356     0.0261     0.3450     0.2811     0.2984     0.5247     0.1846 </r>
        <r>     3.4392     0.0009     0.0089     0.0125     0.0119     0.2292     0.1025     0.1095     0.2673     0.2003 </r>
        <r>     3.4823     0.0011    -0.0040     0.0012     0.0107     0.2328     0.0712     0.0278     0.2257     0.3329 </r>
        <r>     3.5253     0.0043     0.0004     0.0046     0.0188     0.2784     0.1138     0.0534     0.3049     0.4002 </r>
        <r>     3.5684     0.0164     0.0468     0.0286     0.0459     0.3618     0.2598     0.1878     0.3736     0.2990 </r>
        <r>     3.6114     0.0384     0.1472     0.0776     0.1050     0.5727     0.5936     0.4341     0.4905     0.2115 </r>
        <r>     3.6545     0.0532     0.2310     0.1175     0.1561     0.7467     0.9249     0.6149     0.6110     0.3391 </r>
        <r>     3.6975     0.0465     0.2123     0.1042     0.1456     0.6671     0.9173     0.5648     0.5591     0.6802 </r>
        <r>     3.7406     0.0361     0.1306     0.0561     0.1088     0.5118     0.6005     0.4442     0.3856     1.0197 </r>
        <r>     3.7836     0.0415     0.0879     0.0264     0.1145     0.5551     0.3092     0.4833     0.2954     1.0488 </r>
        <r>     3.8267     0.0460     0.0876     0.0220     0.1362     0.6956     0.1864     0.6148     0.2851     0.7263 </r>
        <r>     3.8697     0.0312     0.0711     0.0183     0.1093     0.6753     0.1660     0.6385     0.2347     0.3869 </r>
        <r>     3.9128     0.0156     0.0405     0.0219     0.0541     0.4870     0.2348     0.5354     0.1809     0.3152 </r>
        <r>     3.9558     0.0237     0.0357     0.0575     0.0295     0.3230     0.3756     0.4290     0.2060     0.4469 </r>
        <r>     3.9989     0.0440     0.0523     0.1038     0.0368     0.2748     0.4665     0.3715     0.2565     0.5545 </r>
        <r>     4.0419     0.0457     0.0532     0.1055     0.0383     0.2517     0.4134     0.3180     0.2368     0.5125 </r>
        <r>     4.0850     0.0249     0.0303     0.0583     0.0222     0.1739     0.2547     0.2351     0.1464     0.3413 </r>
        <r>     4.1280     0.0047     0.0075     0.0123     0.0055     0.0897     0.1008     0.1374     0.0588     0.1473 </r>
        <r>     4.1711    -0.0024    -0.0016    -0.0045    -0.0012     0.0662     0.0206     0.0627     0.0226     0.0292 </r>
        <r>     4.2141    -0.0018    -0.0020    -0.0041    -0.0015     0.0793     0.0025     0.0296     0.0216    -0.0044 </r>
        <r>     4.2572    -0.0006    -0.0008    -0.0014    -0.0006     0.0680     0.0035     0.0178     0.0198    -0.0031 </r>
        <r>     4.3002    -0.0001    -0.0002    -0.0003    -0.0002     0.0296     0.0016     0.0069     0.0087    -0.0005 </r>
        <r>     4.3433     0.0000    -0.0001    -0.0002    -0.0001     0.0011    -0.0030    -0.0020    -0.0011    -0.0010 </r>
        <r>     4.3863    -0.0001    -0.0004    -0.0006    -0.0004    -0.0068    -0.0076    -0.0060    -0.0061    -0.0026 </r>
        <r>     4.4294    -0.0004    -0.0015    -0.0020    -0.0017    -0.0079    -0.0061    -0.0058    -0.0085    -0.0101 </r>
        <r>     4.4724    -0.0008    -0.0030    -0.0035    -0.0035    -0.0091     0.0181     0.0053    -0.0011    -0.0308 </r>
        <r>     4.5155     0.0005     0.0007     0.0018     0.0006     0.0051     0.0776     0.0395     0.0397    -0.0395 </r>
        <r>     4.5585     0.0059     0.0196     0.0259     0.0219     0.0744     0.1654     0.1104     0.1424     0.0782 </r>
        <r>     4.6016     0.0138     0.0494     0.0628     0.0555     0.2067     0.2567     0.2084     0.2817     0.4256 </r>
        <r>     4.6446     0.0167     0.0627     0.0781     0.0702     0.3004     0.2938     0.2565     0.3399     0.8023 </r>
        <r>     4.6877     0.0108     0.0435     0.0533     0.0484     0.2415     0.2258     0.1878     0.2443     0.8087 </r>
        <r>     4.7307     0.0025     0.0141     0.0165     0.0154     0.0956     0.1155     0.0995     0.1105     0.4521 </r>
        <r>     4.7738    -0.0007    -0.0006    -0.0014    -0.0009     0.0565     0.0842     0.1567     0.0936     0.1574 </r>
        <r>     4.8168     0.0029    -0.0008    -0.0011    -0.0009     0.2266     0.1315     0.3244     0.1662     0.1153 </r>
        <r>     4.8599     0.0105     0.0077     0.0068     0.0068     0.5013     0.1459     0.3953     0.1816     0.1759 </r>
        <r>     4.9029     0.0148     0.0304     0.0199     0.0245     0.6583     0.0965     0.3299     0.1095     0.2982 </r>
        <r>     4.9460     0.0110     0.0626     0.0340     0.0484     0.6366     0.0754     0.3161     0.0703     0.5883 </r>
        <r>     4.9890     0.0044     0.0757     0.0370     0.0584     0.5794     0.1532     0.4179     0.1608     0.9284 </r>
        <r>     5.0321     0.0019     0.0559     0.0261     0.0452     0.5295     0.3014     0.5052     0.3662     1.0518 </r>
        <r>     5.0751     0.0028     0.0266     0.0128     0.0258     0.4143     0.4125     0.5642     0.5580     0.9206 </r>
        <r>     5.1182     0.0042     0.0100     0.0049     0.0144     0.2596     0.3918     0.6584     0.5672     0.6458 </r>
        <r>     5.1612     0.0076     0.0047     0.0017     0.0093     0.1790     0.3168     0.7070     0.4169     0.3386 </r>
        <r>     5.2043     0.0148     0.0044     0.0017     0.0090     0.2823     0.3559     0.6904     0.3286     0.1651 </r>
        <r>     5.2473     0.0219     0.0069     0.0049     0.0142     0.6045     0.4942     0.7288     0.4269     0.2151 </r>
        <r>     5.2903     0.0237     0.0093     0.0099     0.0209     1.0383     0.5942     0.8235     0.6682     0.4161 </r>
        <r>     5.3334     0.0199     0.0091     0.0136     0.0233     1.3288     0.6303     0.8634     0.9196     0.6359 </r>
        <r>     5.3764     0.0141     0.0077     0.0129     0.0203     1.2533     0.6586     0.7954     1.0594     0.7762 </r>
        <r>     5.4195     0.0103     0.0068     0.0092     0.0154     0.9259     0.7172     0.6690     1.1378     0.8350 </r>
        <r>     5.4625     0.0099     0.0064     0.0074     0.0135     0.6690     0.8008     0.5916     1.2159     0.8541 </r>
        <r>     5.5056     0.0110     0.0061     0.0086     0.0152     0.6275     0.8935     0.6264     1.2812     0.8360 </r>
        <r>     5.5486     0.0109     0.0057     0.0090     0.0149     0.8220     1.0076     0.7369     1.4550     0.8018 </r>
        <r>     5.5917     0.0096     0.0061     0.0063     0.0107     1.2024     1.0503     0.8595     1.6580     0.8382 </r>
        <r>     5.6347     0.0100     0.0079     0.0032     0.0076     1.4862     0.8740     0.9374     1.5131     0.9320 </r>
        <r>     5.6778     0.0133     0.0095     0.0019     0.0081     1.3496     0.5698     0.8472     1.0420     0.8573 </r>
        <r>     5.7208     0.0165     0.0087     0.0023     0.0093     0.8314     0.3777     0.5550     0.6141     0.5399 </r>
        <r>     5.7639     0.0223     0.0087     0.0045     0.0100     0.3708     0.3999     0.3744     0.3759     0.2748 </r>
        <r>     5.8069     0.0387     0.0133     0.0075     0.0132     0.3023     0.5441     0.6101     0.3162     0.2502 </r>
        <r>     5.8500     0.0564     0.0180     0.0084     0.0164     0.4444     0.6045     0.9722     0.3716     0.2859 </r>
        <r>     5.8930     0.0539     0.0155     0.0061     0.0140     0.4326     0.4997     0.9413     0.3878     0.2115 </r>
        <r>     5.9361     0.0328     0.0078     0.0030     0.0073     0.2395     0.3673     0.5691     0.3072     0.0916 </r>
        <r>     5.9791     0.0135     0.0023     0.0014     0.0024     0.0762     0.2916     0.2752     0.2018     0.0420 </r>
        <r>     6.0222     0.0040     0.0019     0.0015     0.0023     0.0457     0.2216     0.2046     0.1227     0.1100 </r>
        <r>     6.0652     0.0004     0.0062     0.0032     0.0068     0.1332     0.1618     0.2523     0.0924     0.2935 </r>
        <r>     6.1083    -0.0007     0.0132     0.0059     0.0128     0.2920     0.1592     0.3200     0.1163     0.4908 </r>
        <r>     6.1513    -0.0006     0.0186     0.0075     0.0145     0.4169     0.2180     0.3632     0.1634     0.5402 </r>
        <r>     6.1944    -0.0002     0.0176     0.0066     0.0096     0.3953     0.3471     0.3443     0.2173     0.4142 </r>
        <r>     6.2374    -0.0002     0.0109     0.0035     0.0031     0.2395     0.5163     0.2331     0.2763     0.2341 </r>
        <r>     6.2805    -0.0009     0.0036     0.0001    -0.0005     0.0742     0.6017     0.0831     0.3006     0.0929 </r>
        <r>     6.3235    -0.0031    -0.0012    -0.0031    -0.0024    -0.0121     0.5795    -0.0090     0.2804     0.0118 </r>
        <r>     6.3666    -0.0051    -0.0026    -0.0046    -0.0032    -0.0190     0.5722    -0.0097     0.2738     0.0139 </r>
        <r>     6.4096     0.0048     0.0045     0.0058     0.0049     0.0387     0.5776     0.0657     0.3006     0.1161 </r>
        <r>     6.4527     0.0407     0.0272     0.0394     0.0316     0.1489     0.5039     0.1705     0.3442     0.2467 </r>
        <r>     6.4957     0.0864     0.0542     0.0788     0.0634     0.2396     0.3652     0.2164     0.3730     0.2698 </r>
        <r>     6.5388     0.0950     0.0572     0.0826     0.0673     0.2205     0.2108     0.1598     0.3105     0.1625 </r>
        <r>     6.5818     0.0560     0.0323     0.0461     0.0381     0.1118     0.0752     0.0616     0.1562     0.0411 </r>
        <r>     6.6249     0.0123     0.0061     0.0087     0.0074     0.0175    -0.0032    -0.0020     0.0248    -0.0152 </r>
        <r>     6.6679    -0.0052    -0.0038    -0.0052    -0.0043    -0.0141    -0.0213    -0.0175    -0.0199    -0.0207 </r>
        <r>     6.7110    -0.0021    -0.0004    -0.0012    -0.0008    -0.0033     0.0031     0.0087    -0.0070     0.0120 </r>
        <r>     6.7540     0.0100     0.0108     0.0114     0.0105     0.0270     0.0630     0.0793     0.0287     0.0939 </r>
        <r>     6.7971     0.0210     0.0216     0.0233     0.0215     0.0548     0.1229     0.1523     0.0602     0.1791 </r>
        <r>     6.8401     0.0203     0.0209     0.0228     0.0215     0.0523     0.1210     0.1499     0.0580     0.1765 </r>
        <r>     6.8832     0.0107     0.0110     0.0121     0.0115     0.0275     0.0642     0.0796     0.0306     0.0938 </r>
        <r>     6.9262     0.0094     0.0089     0.0076     0.0044     0.0283     0.0337     0.0410     0.0291     0.0461 </r>
        <r>     6.9693     0.0230     0.0213     0.0164     0.0064     0.0724     0.0653     0.0789     0.0737     0.0859 </r>
        <r>     7.0123     0.0340     0.0316     0.0248     0.0099     0.1046     0.1001     0.1236     0.1114     0.1347 </r>
        <r>     7.0554     0.0246     0.0230     0.0184     0.0068     0.0686     0.0764     0.1024     0.0879     0.1106 </r>
        <r>     7.0984     0.0072     0.0067     0.0057     0.0014     0.0135     0.0250     0.0410     0.0325     0.0433 </r>
        <r>     7.1415     0.0160     0.0145     0.0101     0.0078     0.0803     0.0340     0.0058     0.0181     0.0120 </r>
        <r>     7.1845     0.0641     0.0586     0.0403     0.0323     0.3289     0.1347     0.0114     0.0657     0.0364 </r>
        <r>     7.2276     0.1102     0.1012     0.0695     0.0552     0.5608     0.2345     0.0271     0.1184     0.0700 </r>
        <r>     7.2706     0.1003     0.0926     0.0634     0.0503     0.5095     0.2149     0.0268     0.1096     0.0658 </r>
        <r>     7.3136     0.0470     0.0436     0.0297     0.0237     0.2387     0.1013     0.0128     0.0518     0.0311 </r>
        <r>     7.3567     0.0053     0.0051     0.0034     0.0027     0.0270     0.0117     0.0014     0.0060     0.0035 </r>
        <r>     7.3997    -0.0059    -0.0055    -0.0038    -0.0030    -0.0301    -0.0127    -0.0016    -0.0065    -0.0039 </r>
        <r>     7.4428    -0.0036    -0.0033    -0.0023    -0.0018    -0.0181    -0.0077    -0.0010    -0.0039    -0.0024 </r>
        <r>     7.4858    -0.0010    -0.0009    -0.0006    -0.0005    -0.0050    -0.0021    -0.0003    -0.0011    -0.0007 </r>
        <r>     7.5289    -0.0002    -0.0002    -0.0001    -0.0001    -0.0008    -0.0004     0.0000    -0.0002    -0.0001 </r>
        <r>     7.5719     0.0000     0.0000     0.0000     0.0000    -0.0001     0.0000     0.0000     0.0000     0.0000 </r>
        <r>     7.6150     0.0000     0.0000     0.0000     0.0000     0.0000     0.0000     0.0000     0.0000     0.0000 </r>
        <r>     7.6580     0.0000     0.0000     0.0000     0.0000     0.0000     0.0000     0.0000     0.0000     0.0000 </r>
        <r>     7.7011     0.0000     0.0000     0.0000     0.0000     0.0000     0.0000     0.0000     0.0000     0.0000 </r>
        <r>     7.7441     0.0000     0.0000     0.0000     0.0000     0.0000     0.0000     0.0000     0.0000     0.0000 </r>
        <r>     7.7872     0.0000     0.0000     0.0000     0.0000     0.0000     0.0000     0.0000     0.0000     0.0000 </r>
        <r>     7.8302     0.0000     0.0000     0.0000     0.0000     0.0000     0.0000     0.0000     0.0000     0.0000 </r>
        <r>     7.8733     0.0000     0.0000     0.0000     0.0000     0.0000     0.0000     0.0000     0.0000     0.0000 </r>
        <r>     7.9163     0.0000     0.0000     0.0000     0.0000     0.0000     0.0000     0.0000     0.0000     0.0000 </r>
        <r>     7.9594     0.0000     0.0000     0.0000     0.0000     0.0000     0.0000     0.0000     0.0000     0.0000 </r>
        <r>     8.0024     0.0000     0.0000     0.0000     0.0000     0.0000     0.0000     0.0000     0.0000     0.0000 </r>
        <r>     8.0455     0.0000     0.0000     0.0000     0.0000     0.0000     0.0000     0.0000     0.0000     0.0000 </r>
[...]
        <r>  0.0000  0.0001  0.0000  0.0000  0.0006  0.0004  0.0008  0.0002  0.0003 </r>
        <r>  0.0000  0.0034  0.0011  0.0000  0.0173  0.0115  0.0259  0.0058  0.0086 </r>
        <r>  0.0000  0.0001  0.0000  0.0000  0.0006  0.0004  0.0008  0.0002  0.0003 </r>
        <r>  0.0000  0.0034  0.0011  0.0000  0.0173  0.0115  0.0259  0.0058  0.0086 </r>
        <r>  0.0000  0.0004  0.0011  0.0030  0.0046  0.0274  0.0259  0.0137  0.0076 </r>
        <r>  0.0000  0.0000  0.0000  0.0001  0.0196  0.1178  0.0008  0.0589  0.1199 </r>
       </set>
       <set comment="band 21">
        <r>  0.0000  0.0034  0.0011  0.0000  0.0174  0.0116  0.0261  0.0058  0.0087 </r>
        <r>  0.0000  0.0001  0.0000  0.0000  0.0005  0.0003  0.0007  0.0002  0.0002 </r>
        <r>  0.0000  0.0000  0.0000  0.0001  0.0195  0.1172  0.0007  0.0586  0.1225 </r>
        <r>  0.0000  0.0004  0.0011  0.0030  0.0043  0.0257  0.0260  0.0129  0.0089 </r>
        <r>  0.0000  0.0000  0.0000  0.0001  0.0195  0.1172  0.0007  0.0586  0.1225 </r>
        <r>  0.0000  0.0004  0.0011  0.0030  0.0043  0.0257  0.0260  0.0129  0.0089 </r>
        <r>  0.0000  0.0034  0.0011  0.0000  0.0174  0.0116  0.0261  0.0058  0.0087 </r>
        <r>  0.0000  0.0001  0.0000  0.0000  0.0005  0.0003  0.0007  0.0002  0.0002 </r>
       </set>
       <set comment="band 22">
        <r>  0.0000  0.0018  0.0006  0.0000  0.0295  0.0196  0.0442  0.0098  0.0147 </r>
        <r>  0.0000  0.0018  0.0006  0.0000  0.0294  0.0196  0.0440  0.0098  0.0147 </r>
        <r>  0.0000  0.0018  0.0006  0.0000  0.0294  0.0196  0.0440  0.0098  0.0147 </r>
        <r>  0.0000  0.0018  0.0006  0.0000  0.0295  0.0196  0.0442  0.0098  0.0147 </r>
        <r>  0.0000  0.0018  0.0006  0.0000  0.0294  0.0196  0.0440  0.0098  0.0147 </r>
        <r>  0.0000  0.0018  0.0006  0.0000  0.0295  0.0196  0.0442  0.0098  0.0147 </r>
        <r>  0.0000  0.0018  0.0006  0.0000  0.0295  0.0196  0.0442  0.0098  0.0147 </r>
        <r>  0.0000  0.0018  0.0006  0.0000  0.0294  0.0196  0.0440  0.0098  0.0147 </r>
       </set>
       <set comment="band 23">
        <r>  0.0000  0.0002  0.0006  0.0016  0.0033  0.0196  0.0442  0.0098  0.0409 </r>
        <r>  0.0000  0.0002  0.0006  0.0016  0.0033  0.0196  0.0440  0.0098  0.0408 </r>
        <r>  0.0000  0.0002  0.0006  0.0016  0.0033  0.0196  0.0441  0.0098  0.0408 </r>
        <r>  0.0000  0.0002  0.0006  0.0016  0.0033  0.0196  0.0442  0.0098  0.0409 </r>
        <r>  0.0000  0.0002  0.0006  0.0016  0.0033  0.0196  0.0440  0.0098  0.0408 </r>
        <r>  0.0000  0.0002  0.0006  0.0016  0.0033  0.0196  0.0442  0.0098  0.0409 </r>
        <r>  0.0000  0.0002  0.0006  0.0016  0.0033  0.0196  0.0442  0.0098  0.0409 </r>
        <r>  0.0000  0.0002  0.0006  0.0016  0.0033  0.0196  0.0440  0.0098  0.0408 </r>
       </set>
       <set comment="band 24">
        <r>  0.0000  0.0000  0.0000  0.0000  0.0575  0.0096  0.0216  0.0192  0.0072 </r>
        <r>  0.0000  0.0000  0.0000  0.0000  0.0575  0.0096  0.0216  0.0192  0.0072 </r>
        <r>  0.0000  0.0000  0.0000  0.0000  0.0575  0.0096  0.0216  0.0192  0.0072 </r>
        <r>  0.0000  0.0000  0.0000  0.0000  0.0575  0.0096  0.0215  0.0192  0.0072 </r>
        <r>  0.0000  0.0000  0.0000  0.0000  0.0575  0.0096  0.0216  0.0192  0.0072 </r>
        <r>  0.0000  0.0000  0.0000  0.0000  0.0575  0.0096  0.0216  0.0192  0.0072 </r>
        <r>  0.0000  0.0000  0.0000  0.0000  0.0575  0.0096  0.0216  0.0192  0.0072 </r>
        <r>  0.0000  0.0000  0.0000  0.0000  0.0575  0.0096  0.0216  0.0192  0.0072 </r>
       </set>
       <set comment="band 25">
        <r>  0.0000  0.0013  0.0004  0.0000  0.0442  0.0285  0.0640  0.0148  0.0214 </r>
        <r>  0.0000  0.0000  0.0000  0.0000  0.0418  0.0065  0.0146  0.0140  0.0049 </r>
        <r>  0.0000  0.0018  0.0053  0.0035  0.0059  0.0083  0.0019  0.0176  0.0009 </r>
        <r>  0.0000  0.0002  0.0005  0.0011  0.0049  0.0285  0.0645  0.0148  0.0602 </r>
        <r>  0.0000  0.0018  0.0053  0.0035  0.0059  0.0083  0.0019  0.0176  0.0009 </r>
        <r>  0.0000  0.0002  0.0005  0.0011  0.0049  0.0285  0.0645  0.0148  0.0602 </r>
        <r>  0.0000  0.0013  0.0004  0.0000  0.0442  0.0285  0.0640  0.0148  0.0214 </r>
        <r>  0.0000  0.0000  0.0000  0.0000  0.0418  0.0065  0.0146  0.0140  0.0049 </r>
       </set>
       <set comment="band 26">
        <r>  0.0000  0.0002  0.0005  0.0011  0.0049  0.0285  0.0647  0.0146  0.0601 </r>
        <r>  0.0000  0.0018  0.0053  0.0035  0.0058  0.0084  0.0020  0.0175  0.0008 </r>
        <r>  0.0000  0.0000  0.0000  0.0000  0.0415  0.0066  0.0148  0.0138  0.0049 </r>
        <r>  0.0000  0.0013  0.0004  0.0000  0.0439  0.0286  0.0644  0.0146  0.0214 </r>
        <r>  0.0000  0.0000  0.0000  0.0000  0.0415  0.0066  0.0148  0.0138  0.0049 </r>
        <r>  0.0000  0.0013  0.0004  0.0000  0.0439  0.0286  0.0645  0.0146  0.0214 </r>
        <r>  0.0000  0.0002  0.0005  0.0011  0.0049  0.0286  0.0647  0.0146  0.0601 </r>
        <r>  0.0000  0.0018  0.0053  0.0035  0.0058  0.0084  0.0020  0.0175  0.0008 </r>
       </set>
       <set comment="band 27">
        <r>  0.0000  0.0018  0.0053  0.0036  0.0062  0.0086  0.0026  0.0164  0.0007 </r>
        <r>  0.0000  0.0001  0.0004  0.0012  0.0052  0.0281  0.0673  0.0137  0.0587 </r>
        <r>  0.0000  0.0013  0.0005  0.0000  0.0431  0.0281  0.0676  0.0137  0.0206 </r>
        <r>  0.0000  0.0000  0.0000  0.0000  0.0407  0.0068  0.0160  0.0129  0.0053 </r>
        <r>  0.0000  0.0013  0.0005  0.0000  0.0431  0.0281  0.0676  0.0137  0.0206 </r>
        <r>  0.0000  0.0000  0.0000  0.0000  0.0406  0.0067  0.0160  0.0129  0.0053 </r>
        <r>  0.0000  0.0018  0.0053  0.0036  0.0062  0.0086  0.0026  0.0164  0.0007 </r>
        <r>  0.0000  0.0001  0.0004  0.0012  0.0052  0.0281  0.0673  0.0137  0.0587 </r>
       </set>
       <set comment="band 28">
        <r>  0.0000  0.0000  0.0000  0.0000  0.0393  0.0074  0.0158  0.0138  0.0053 </r>
        <r>  0.0000  0.0013  0.0004  0.0000  0.0418  0.0302  0.0634  0.0146  0.0231 </r>
        <r>  0.0000  0.0001  0.0004  0.0012  0.0042  0.0302  0.0629  0.0145  0.0611 </r>
        <r>  0.0000  0.0017  0.0052  0.0036  0.0051  0.0093  0.0022  0.0173  0.0005 </r>
        <r>  0.0000  0.0001  0.0004  0.0012  0.0042  0.0302  0.0629  0.0145  0.0611 </r>
        <r>  0.0000  0.0017  0.0052  0.0036  0.0051  0.0093  0.0022  0.0173  0.0005 </r>
        <r>  0.0000  0.0000  0.0000  0.0000  0.0393  0.0074  0.0158  0.0138  0.0053 </r>
        <r>  0.0000  0.0013  0.0004  0.0000  0.0418  0.0302  0.0634  0.0146  0.0231 </r>
       </set>
       <set comment="band 29">
        <r>  0.0000  0.0000  0.0000  0.0000  0.0068  0.0406  0.0000  0.0203  0.0541 </r>
        <r>  0.0000  0.0000  0.0000  0.0000  0.0068  0.0405  0.0000  0.0203  0.0540 </r>
        <r>  0.0000  0.0000  0.0000  0.0000  0.0068  0.0405  0.0000  0.0203  0.0540 </r>
        <r>  0.0000  0.0000  0.0000  0.0000  0.0068  0.0406  0.0000  0.0203  0.0542 </r>
        <r>  0.0000  0.0000  0.0000  0.0000  0.0068  0.0405  0.0000  0.0203  0.0540 </r>
        <r>  0.0000  0.0000  0.0000  0.0000  0.0068  0.0406  0.0000  0.0203  0.0541 </r>
        <r>  0.0000  0.0000  0.0000  0.0000  0.0068  0.0406  0.0000  0.0203  0.0542 </r>
        <r>  0.0000  0.0000  0.0000  0.0000  0.0068  0.0405  0.0000  0.0203  0.0540 </r>
       </set>
       <set comment="band 30">
        <r>  0.0000  0.0035  0.0012  0.0000  0.0286  0.0191  0.0429  0.0095  0.0143 </r>
        <r>  0.0000  0.0035  0.0012  0.0000  0.0287  0.0191  0.0431  0.0096  0.0144 </r>
        <r>  0.0000  0.0035  0.0012  0.0000  0.0287  0.0191  0.0431  0.0096  0.0144 </r>
        <r>  0.0000  0.0035  0.0012  0.0000  0.0286  0.0191  0.0429  0.0095  0.0143 </r>
        <r>  0.0000  0.0035  0.0012  0.0000  0.0287  0.0191  0.0431  0.0096  0.0144 </r>
        <r>  0.0000  0.0035  0.0012  0.0000  0.0286  0.0191  0.0429  0.0095  0.0143 </r>
        <r>  0.0000  0.0035  0.0012  0.0000  0.0286  0.0191  0.0429  0.0095  0.0143 </r>
        <r>  0.0000  0.0035  0.0012  0.0000  0.0287  0.0191  0.0431  0.0096  0.0144 </r>
       </set>
       <set comment="band 31">
        <r>  0.0000  0.0004  0.0012  0.0031  0.0032  0.0191  0.0429  0.0095  0.0398 </r>
        <r>  0.0000  0.0004  0.0012  0.0031  0.0032  0.0191  0.0431  0.0096  0.0399 </r>
        <r>  0.0000  0.0004  0.0012  0.0031  0.0032  0.0191  0.0431  0.0096  0.0399 </r>
        <r>  0.0000  0.0004  0.0012  0.0031  0.0032  0.0191  0.0430  0.0095  0.0398 </r>
        <r>  0.0000  0.0004  0.0012  0.0031  0.0032  0.0191  0.0431  0.0096  0.0399 </r>
        <r>  0.0000  0.0004  0.0012  0.0031  0.0032  0.0191  0.0429  0.0095  0.0398 </r>
        <r>  0.0000  0.0004  0.0012  0.0031  0.0032  0.0191  0.0429  0.0095  0.0398 </r>
        <r>  0.0000  0.0004  0.0012  0.0031  0.0032  0.0191  0.0431  0.0096  0.0399 </r>
       </set>
       <set comment="band 32">
        <r>  0.0000  0.0013  0.0004  0.0000  0.0419  0.0279  0.0628  0.0140  0.0209 </r>
        <r>  0.0000  0.0000  0.0000  0.0000  0.0011  0.0008  0.0017  0.0004  0.0006 </r>
        <r>  0.0000  0.0000  0.0000  0.0000  0.0058  0.0346  0.0017  0.0173  0.0821 </r>
        <r>  0.0000  0.0001  0.0004  0.0012  0.0029  0.0174  0.0628  0.0087  0.0794 </r>
        <r>  0.0000  0.0000  0.0000  0.0000  0.0058  0.0346  0.0017  0.0173  0.0821 </r>
        <r>  0.0000  0.0001  0.0004  0.0012  0.0029  0.0174  0.0628  0.0087  0.0794 </r>
        <r>  0.0000  0.0013  0.0004  0.0000  0.0419  0.0279  0.0628  0.0139  0.0209 </r>
        <r>  0.0000  0.0000  0.0000  0.0000  0.0011  0.0008  0.0017  0.0004  0.0006 </r>
       </set>
       <set comment="band 33">
        <r>  0.0000  0.0001  0.0004  0.0012  0.0028  0.0165  0.0625  0.0083  0.0810 </r>
        <r>  0.0000  0.0000  0.0000  0.0000  0.0056  0.0336  0.0020  0.0168  0.0837 </r>
        <r>  0.0000  0.0000  0.0000  0.0000  0.0013  0.0009  0.0020  0.0004  0.0007 </r>
        <r>  0.0000  0.0013  0.0004  0.0000  0.0417  0.0278  0.0625  0.0139  0.0209 </r>
        <r>  0.0000  0.0000  0.0000  0.0000  0.0013  0.0009  0.0020  0.0004  0.0007 </r>
        <r>  0.0000  0.0013  0.0004  0.0000  0.0417  0.0278  0.0625  0.0139  0.0208 </r>
        <r>  0.0000  0.0001  0.0004  0.0012  0.0028  0.0165  0.0625  0.0083  0.0810 </r>
        <r>  0.0000  0.0000  0.0000  0.0000  0.0056  0.0336  0.0020  0.0168  0.0836 </r>
       </set>
       <set comment="band 34">
        <r>  0.0000  0.0000  0.0000  0.0000  0.0011  0.0008  0.0017  0.0004  0.0006 </r>
        <r>  0.0000  0.0013  0.0004  0.0000  0.0419  0.0279  0.0629  0.0140  0.0210 </r>
        <r>  0.0000  0.0001  0.0004  0.0012  0.0068  0.0410  0.0629  0.0205  0.0402 </r>
        <r>  0.0000  0.0000  0.0000  0.0000  0.0097  0.0581  0.0017  0.0290  0.0427 </r>
        <r>  0.0000  0.0001  0.0004  0.0012  0.0068  0.0410  0.0629  0.0205  0.0402 </r>
        <r>  0.0000  0.0000  0.0000  0.0000  0.0097  0.0581  0.0017  0.0290  0.0427 </r>
        <r>  0.0000  0.0000  0.0000  0.0000  0.0011  0.0008  0.0017  0.0004  0.0006 </r>
        <r>  0.0000  0.0013  0.0004  0.0000  0.0419  0.0279  0.0628  0.0140  0.0209 </r>
       </set>
       <set comment="band 35">
        <r>  0.0000  0.0000  0.0000  0.0000  0.0098  0.0589  0.0020  0.0295  0.0411 </r>
        <r>  0.0000  0.0001  0.0004  0.0012  0.0070  0.0420  0.0626  0.0210  0.0386 </r>
        <r>  0.0000  0.0013  0.0004  0.0000  0.0417  0.0278  0.0626  0.0139  0.0208 </r>
        <r>  0.0000  0.0000  0.0000  0.0000  0.0013  0.0009  0.0020  0.0004  0.0007 </r>
        <r>  0.0000  0.0013  0.0004  0.0000  0.0417  0.0278  0.0625  0.0139  0.0209 </r>
        <r>  0.0000  0.0000  0.0000  0.0000  0.0013  0.0009  0.0020  0.0004  0.0007 </r>
        <r>  0.0000  0.0000  0.0000  0.0000  0.0098  0.0590  0.0020  0.0295  0.0412 </r>
        <r>  0.0000  0.0001  0.0004  0.0012  0.0070  0.0420  0.0626  0.0210  0.0387 </r>
       </set>
       <set comment="band 36">
        <r>  0.0000  0.0000  0.0000  0.0000  0.0068  0.0407  0.0000  0.0203  0.0542 </r>
        <r>  0.0000  0.0000  0.0000  0.0000  0.0068  0.0408  0.0000  0.0204  0.0544 </r>
        <r>  0.0000  0.0000  0.0000  0.0000  0.0068  0.0408  0.0000  0.0204  0.0544 </r>
        <r>  0.0000  0.0000  0.0000  0.0000  0.0068  0.0407  0.0000  0.0204  0.0542 </r>
        <r>  0.0000  0.0000  0.0000  0.0000  0.0068  0.0408  0.0000  0.0204  0.0543 </r>
        <r>  0.0000  0.0000  0.0000  0.0000  0.0068  0.0407  0.0000  0.0203  0.0542 </r>
        <r>  0.0000  0.0000  0.0000  0.0000  0.0068  0.0407  0.0000  0.0203  0.0542 </r>
        <r>  0.0000  0.0000  0.0000  0.0000  0.0068  0.0408  0.0000  0.0204  0.0543 </r>
       </set>
       <set comment="band 37">
        <r>  0.0001  0.0000  0.0001  0.0000  0.0382  0.0560  0.0142  0.1147  0.0044 </r>
        <r>  0.0000  0.0000  0.0000  0.0000  0.0013  0.0053  0.0000  0.0040  0.0079 </r>
        <r>  0.0000  0.0000  0.0000  0.0000  0.0013  0.0053  0.0000  0.0040  0.0079 </r>
        <r>  0.0001  0.0000  0.0001  0.0000  0.0382  0.0560  0.0142  0.1147  0.0045 </r>
        <r>  0.0000  0.0000  0.0000  0.0000  0.0013  0.0053  0.0000  0.0040  0.0079 </r>
        <r>  0.0001  0.0000  0.0001  0.0000  0.0382  0.0560  0.0142  0.1146  0.0045 </r>
        <r>  0.0001  0.0000  0.0001  0.0000  0.0382  0.0560  0.0142  0.1147  0.0044 </r>
        <r>  0.0000  0.0000  0.0000  0.0000  0.0013  0.0053  0.0000  0.0040  0.0079 </r>
       </set>
       <set comment="band 38">
        <r>  0.0000  0.0000  0.0000  0.0000  0.0007  0.0070  0.0000  0.0022  0.0084 </r>
        <r>  0.0001  0.0000  0.0001  0.0000  0.0376  0.0578  0.0142  0.1129  0.0050 </r>
        <r>  0.0001  0.0000  0.0001  0.0000  0.0376  0.0578  0.0142  0.1129  0.0050 </r>
        <r>  0.0000  0.0000  0.0000  0.0000  0.0007  0.0070  0.0000  0.0022  0.0084 </r>
        <r>  0.0001  0.0000  0.0001  0.0000  0.0376  0.0578  0.0142  0.1129  0.0050 </r>
        <r>  0.0000  0.0000  0.0000  0.0000  0.0007  0.0070  0.0000  0.0022  0.0084 </r>
        <r>  0.0000  0.0000  0.0000  0.0000  0.0007  0.0070  0.0000  0.0022  0.0084 </r>
        <r>  0.0001  0.0000  0.0001  0.0000  0.0376  0.0578  0.0142  0.1129  0.0050 </r>
       </set>
       <set comment="band 39">
        <r>  0.0000  0.0000  0.0000  0.0000  0.1233  0.0205  0.0462  0.0411  0.0154 </r>
        <r>  0.0000  0.0000  0.0000  0.0000  0.0000  0.0000  0.0000  0.0000  0.0000 </r>
        <r>  0.0000  0.0000  0.0000  0.0000  0.0000  0.0000  0.0000  0.0000  0.0000 </r>
        <r>  0.0000  0.0000  0.0000  0.0000  0.1233  0.0205  0.0462  0.0411  0.0154 </r>
        <r>  0.0000  0.0000  0.0000  0.0000  0.0000  0.0000  0.0000  0.0000  0.0000 </r>
        <r>  0.0000  0.0000  0.0000  0.0000  0.1232  0.0206  0.0462  0.0411  0.0154 </r>
        <r>  0.0000  0.0000  0.0000  0.0000  0.1232  0.0205  0.0462  0.0411  0.0154 </r>
        <r>  0.0000  0.0000  0.0000  0.0000  0.0000  0.0000  0.0000  0.0000  0.0000 </r>
       </set>
       <set comment="band 40">
        <r>  0.0000  0.0000  0.0000  0.0000  0.0000  0.0000  0.0000  0.0000  0.0000 </r>
        <r>  0.0000  0.0000  0.0000  0.0000  0.1233  0.0205  0.0462  0.0411  0.0154 </r>
        <r>  0.0000  0.0000  0.0000  0.0000  0.1233  0.0205  0.0462  0.0411  0.0154 </r>
        <r>  0.0000  0.0000  0.0000  0.0000  0.0000  0.0000  0.0000  0.0000  0.0000 </r>
        <r>  0.0000  0.0000  0.0000  0.0000  0.1233  0.0205  0.0462  0.0411  0.0154 </r>
        <r>  0.0000  0.0000  0.0000  0.0000  0.0000  0.0000  0.0000  0.0000  0.0000 </r>
        <r>  0.0000  0.0000  0.0000  0.0000  0.0000  0.0000  0.0000  0.0000  0.0000 </r>
        <r>  0.0000  0.0000  0.0000  0.0000  0.1233  0.0205  0.0462  0.0411  0.0154 </r>
       </set>
       <set comment="band 41">
        <r>  0.0043  0.0002  0.0006  0.0004  0.0194  0.0292  0.0073  0.0585  0.0024 </r>
        <r>  0.0043  0.0002  0.0006  0.0004  0.0195  0.0292  0.0073  0.0583  0.0024 </r>
        <r>  0.0043  0.0002  0.0006  0.0004  0.0195  0.0292  0.0073  0.0584  0.0024 </r>
        <r>  0.0043  0.0002  0.0006  0.0004  0.0195  0.0292  0.0073  0.0584  0.0024 </r>
        <r>  0.0043  0.0002  0.0006  0.0004  0.0195  0.0292  0.0073  0.0584  0.0024 </r>
        <r>  0.0043  0.0002  0.0006  0.0004  0.0194  0.0292  0.0073  0.0584  0.0024 </r>
        <r>  0.0043  0.0002  0.0006  0.0004  0.0196  0.0292  0.0073  0.0584  0.0024 </r>
        <r>  0.0043  0.0002  0.0006  0.0004  0.0194  0.0292  0.0073  0.0584  0.0024 </r>
       </set>
       <set comment="band 42">
        <r>  0.0415  0.0006  0.0019  0.0013  0.0050  0.0460  0.0019  0.0921  0.0006 </r>
        <r>  0.0000  0.0007  0.0081  0.0085  0.0008  0.0001  0.0033  0.0001  0.0005 </r>
        <r>  0.0000  0.0063  0.0081  0.0030  0.0012  0.0001  0.0034  0.0000  0.0000 </r>
        <r>  0.0145  0.0002  0.0007  0.0005  0.0585  0.0435  0.0220  0.0869  0.0073 </r>
        <r>  0.0000  0.0063  0.0081  0.0030  0.0012  0.0001  0.0034  0.0000  0.0000 </r>
        <r>  0.0145  0.0002  0.0007  0.0005  0.0585  0.0435  0.0220  0.0869  0.0073 </r>
        <r>  0.0415  0.0006  0.0019  0.0013  0.0050  0.0460  0.0019  0.0921  0.0006 </r>
        <r>  0.0000  0.0007  0.0081  0.0085  0.0008  0.0001  0.0033  0.0001  0.0005 </r>
       </set>
       <set comment="band 43">
        <r>  0.0049  0.0085  0.0032  0.0002  0.0463  0.0018  0.0221  0.0011  0.0073 </r>
        <r>  0.0001  0.0048  0.0002  0.0010  0.0777  0.0177  0.0317  0.0309  0.0117 </r>
        <r>  0.0365  0.0039  0.0024  0.0030  0.0082  0.0184  0.0026  0.0404  0.0024 </r>
        <r>  0.0144  0.0011  0.0046  0.0069  0.0307  0.0013  0.0111  0.0043  0.0056 </r>
        <r>  0.0365  0.0039  0.0025  0.0030  0.0082  0.0184  0.0026  0.0404  0.0024 </r>
        <r>  0.0144  0.0011  0.0046  0.0069  0.0308  0.0013  0.0111  0.0043  0.0056 </r>
        <r>  0.0049  0.0085  0.0032  0.0002  0.0463  0.0018  0.0221  0.0011  0.0073 </r>
        <r>  0.0001  0.0048  0.0002  0.0010  0.0777  0.0177  0.0317  0.0309  0.0117 </r>
       </set>
       <set comment="band 44">
        <r>  0.0000  0.0020  0.0038  0.0115  0.0001  0.0009  0.0016  0.0004  0.0018 </r>
        <r>  0.0557  0.0008  0.0025  0.0017  0.0240  0.0238  0.0090  0.0475  0.0030 </r>
        <r>  0.0002  0.0000  0.0000  0.0000  0.1340  0.0185  0.0502  0.0371  0.0167 </r>
        <r>  0.0000  0.0135  0.0038  0.0000  0.0012  0.0009  0.0015  0.0005  0.0007 </r>
        <r>  0.0002  0.0000  0.0000  0.0000  0.1340  0.0185  0.0502  0.0371  0.0167 </r>
        <r>  0.0000  0.0135  0.0038  0.0000  0.0012  0.0009  0.0015  0.0005  0.0007 </r>
        <r>  0.0000  0.0020  0.0038  0.0115  0.0001  0.0009  0.0016  0.0004  0.0018 </r>
        <r>  0.0557  0.0008  0.0025  0.0017  0.0240  0.0238  0.0090  0.0475  0.0030 </r>
       </set>
      </set>
     </set>
    </set>
   </array>
  </projected>
 </calculation>
 <structure name="finalpos" >
  <crystal>
   <varray name="basis" >
    <v>       4.97098582       0.00000000       0.00000000 </v>
    <v>      -1.65699527       4.68669037       0.00000000 </v>
    <v>      -1.65699527      -2.34334519       4.05879292 </v>
   </varray>
   <i name="volume">     94.55961200 </i>
   <varray name="rec_basis" >
    <v>       0.20116734       0.07112340       0.12318933 </v>
    <v>       0.00000000       0.21337019       0.12318933 </v>
    <v>       0.00000000       0.00000000       0.24637867 </v>
   </varray>
  </crystal>
  <varray name="positions" >
   <v>       0.00000000       0.00000000       0.00000000 </v>
   <v>       0.50000000       0.00000000       0.00000000 </v>
   <v>       0.00000000       0.50000000       0.00000000 </v>
   <v>       0.50000000       0.50000000       0.00000000 </v>
   <v>       0.00000000       0.00000000       0.50000000 </v>
   <v>       0.50000000       0.00000000       0.50000000 </v>
   <v>       0.00000000       0.50000000       0.50000000 </v>
   <v>       0.50000000       0.50000000       0.50000000 </v>
  </varray>
 </structure>
</modeling>
