unknown system                          
           1
     4.970986    0.000000    0.000000
    -1.656995    4.686690    0.000000
    -1.656995   -2.343345    4.058793
   Fe   Fe
   1   7
Direct configuration=     1
   0.00000000  0.00000000  0.00000000
   0.50000000  0.00000000  0.00000000
   0.00000000  0.50000000  0.00000000
   0.50000000  0.50000000  0.00000000
   0.00000000  0.00000000  0.50000000
   0.50000000  0.00000000  0.50000000
   0.00000000  0.50000000  0.50000000
   0.50000000  0.50000000  0.50000000
