 running on    3 nodes
 each image running on    1 nodes
 distr:  one band on    1 nodes,    1 groups
 vasp.5.2.12 11Nov11 complex                                                    
  
 01/POSCAR found :  2 types and      13 ions
 LDA part: xc-table for Pade appr. of Perdew
 00/POSCAR found :  2 types and      13 ions
 04/POSCAR found :  2 types and      13 ions
 POSCAR, INCAR and KPOINTS ok, starting setup
 WARNING: small aliasing (wrap around) errors must be expected
 FFT: planning ...(           5 )
 WAVECAR not read
 entering main loop
       N       E                     dE             d eps       ncg     rms          rms(c)
DAV:   1     0.105276142415E+04    0.10528E+04   -0.41701E+04  2100   0.104E+03
DAV:   2     0.577958723405E+02   -0.99497E+03   -0.90239E+03  2338   0.420E+02
DAV:   3    -0.699257153887E+02   -0.12772E+03   -0.11904E+03  2744   0.124E+02
DAV:   4    -0.794637720965E+02   -0.95381E+01   -0.85184E+01  2992   0.369E+01
DAV:   5    -0.798038104009E+02   -0.34004E+00   -0.32951E+00  2784   0.589E+00    0.161E+01
DAV:   6    -0.762067119672E+02    0.35971E+01   -0.27807E+01  3455   0.387E+01    0.131E+01
DAV:   7    -0.750706130422E+02    0.11361E+01   -0.17161E+01  3880   0.375E+01    0.890E+00
DAV:   8    -0.747579656178E+02    0.31265E+00   -0.10502E+01  3632   0.296E+01    0.843E+00
DAV:   9    -0.742918712809E+02    0.46609E+00   -0.76231E+00  3816   0.213E+01    0.679E+00
DAV:  10    -0.734013595772E+02    0.89051E+00   -0.18551E+00  3608   0.123E+01    0.176E+00
DAV:  11    -0.733794189841E+02    0.21941E-01   -0.22283E-01  2911   0.327E+00    0.124E+00
DAV:  12    -0.733646150085E+02    0.14804E-01   -0.94478E-02  3328   0.280E+00    0.844E-01
DAV:  13    -0.733573477935E+02    0.72672E-02   -0.49183E-02  3208   0.195E+00    0.435E-01
DAV:  14    -0.733547824207E+02    0.25654E-02   -0.16720E-02  3223   0.112E+00    0.150E-01
DAV:  15    -0.733547626139E+02    0.19807E-04   -0.26890E-03  3122   0.409E-01    0.103E-01
DAV:  16    -0.733547580189E+02    0.45950E-05   -0.86175E-04  1799   0.260E-01
   1 F= -.73354758E+02 E0= -.73346333E+02  d E =-.733548E+02
 BRION: g(F)=  0.198E-01 g(S)=  0.000E+00
 bond charge predicted
       N       E                     dE             d eps       ncg     rms          rms(c)
DAV:   1    -0.733563312439E+02   -0.15686E-02   -0.33420E+00  2100   0.741E+00    0.376E-01
DAV:   2    -0.733644292713E+02   -0.80980E-02   -0.83661E-02  2610   0.131E+00    0.321E-01
DAV:   3    -0.733688072617E+02   -0.43780E-02   -0.33036E-02  3472   0.153E+00    0.586E-01
DAV:   4    -0.733633047352E+02    0.55025E-02   -0.17031E-02  3472   0.104E+00    0.169E-01
DAV:   5    -0.733631222400E+02    0.18250E-03   -0.14217E-03  2383   0.309E-01    0.885E-02
DAV:   6    -0.733632096315E+02   -0.87391E-04   -0.79742E-04  1804   0.255E-01
   2 F= -.73363210E+02 E0= -.73355147E+02  d E =-.845161E-02
 BRION: g(F)=  0.168E-02 g(S)=  0.000E+00 retain N=  1 mean eig= 1.41
 eig:   1.406
 bond charge predicted
       N       E                     dE             d eps       ncg     rms          rms(c)
DAV:   1    -0.733630102429E+02    0.11200E-03   -0.44905E-01  2100   0.274E+00    0.138E-01
DAV:   2    -0.733643616558E+02   -0.13514E-02   -0.11838E-02  2676   0.548E-01    0.158E-01
DAV:   3    -0.733644758697E+02   -0.11421E-03   -0.43623E-03  2712   0.582E-01    0.178E-01
DAV:   4    -0.733640363422E+02    0.43953E-03   -0.18403E-03  1536   0.348E-01    0.843E-02
DAV:   5    -0.733639803638E+02    0.55978E-04   -0.32308E-04  1179   0.153E-01
   3 F= -.73363980E+02 E0= -.73355780E+02  d E =-.770732E-03
 BRION: g(F)=  0.188E-04 g(S)=  0.000E+00 retain N=  1 mean eig= 1.33
 eig:   1.325
 reached required accuracy - stopping structural energy minimisation
 writing wavefunctions
NPROCS =  3
