 vasp.5.2.12 11Nov11 complex                                                    
  
 executed on             LinuxIFC date 2012.09.18  22:42:07
 running on    3 nodes
 each image running on    1 nodes
 distr:  one band on    1 nodes,    1 groups


--------------------------------------------------------------------------------------------------------


 INCAR:
 POTCAR:   PAW_PBE O 08Apr2002                    
 POTCAR:   PAW_PBE Pt 05Jan2001                   
 POTCAR:   PAW_PBE O 08Apr2002                    
   VRHFIN =O: s2p4                                                              
   LEXCH  = PE                                                                  
   EATOM  =   432.3788 eV,   31.7789 Ry                                         
                                                                                
   TITEL  = PAW_PBE O 08Apr2002                                                 
   LULTRA =        F    use ultrasoft PP ?                                      
   IUNSCR =        0    unscreen: 0-lin 1-nonlin 2-no                           
   RPACOR =     .000    partial core radius                                     
   POMASS =   16.000; ZVAL   =    6.000    mass and valenz                      
   RCORE  =    1.520    outmost cutoff radius                                   
   RWIGS  =    1.550; RWIGS  =     .820    wigner-seitz radius (au A)           
   ENMAX  =  400.000; ENMIN  =  300.000 eV                                      
   ICORE  =        2    local potential                                         
   LCOR   =        T    correct aug charges                                     
   LPAW   =        T    paw PP                                                  
   EAUG   =  605.392                                                            
   DEXC   =     .000                                                            
   RMAX   =    2.264    core radius for proj-oper                               
   RAUG   =    1.300    factor for augmentation sphere                          
   RDEP   =    1.550    radius for radial grids                                 
   QCUT   =   -5.520; QGAM   =   11.041    optimization parameters              
                                                                                
   Description                                                                  
     l     E      TYP  RCUT    TYP  RCUT                                        
     0   .000     23  1.200                                                     
     0  -.700     23  1.200                                                     
     1   .000     23  1.520                                                     
     1   .600     23  1.520                                                     
     2   .000      7  1.500                                                     
  local pseudopotential read in
  atomic valenz-charges read in
  non local Contribution for L=           0  read in
    real space projection operators read in
  non local Contribution for L=           0  read in
    real space projection operators read in
  non local Contribution for L=           1  read in
    real space projection operators read in
  non local Contribution for L=           1  read in
    real space projection operators read in
    PAW grid and wavefunctions read in
 
   number of l-projection  operators is LMAX  =           4
   number of lm-projection operators is LMMAX =           8
 
 POTCAR:   PAW_PBE Pt 05Jan2001                   
   VRHFIN =Pt: s1d9                                                             
   LEXCH  = PE                                                                  
   EATOM  =   729.1171 eV,   53.5886 Ry                                         
                                                                                
   TITEL  = PAW_PBE Pt 05Jan2001                                                
   LULTRA =        F    use ultrasoft PP ?                                      
   IUNSCR =        1    unscreen: 0-lin 1-nonlin 2-no                           
   RPACOR =    2.330    partial core radius                                     
   POMASS =  195.080; ZVAL   =   10.000    mass and valenz                      
   RCORE  =    2.500    outmost cutoff radius                                   
   RWIGS  =    2.750; RWIGS  =    1.455    wigner-seitz radius (au A)           
   ENMAX  =  230.283; ENMIN  =  172.712 eV                                      
   RCLOC  =    1.896    cutoff for local pot                                    
   LCOR   =        T    correct aug charges                                     
   LPAW   =        T    paw PP                                                  
   EAUG   =  358.966                                                            
   DEXC   =    -.039                                                            
   RMAX   =    3.038    core radius for proj-oper                               
   RAUG   =    1.300    factor for augmentation sphere                          
   RDEP   =    2.590    radius for radial grids                                 
   QCUT   =   -4.114; QGAM   =    8.228    optimization parameters              
                                                                                
   Description                                                                  
     l     E      TYP  RCUT    TYP  RCUT                                        
     2   .000     23  2.500                                                     
     2   .000     23  2.500                                                     
     0   .000     23  2.500                                                     
     0   .000     23  2.500                                                     
     1  -.200     23  2.500                                                     
     1  1.500     23  2.500                                                     
     3   .000      7   .000                                                     
  local pseudopotential read in
  partial core-charges read in
  atomic valenz-charges read in
  non local Contribution for L=           2  read in
    real space projection operators read in
  non local Contribution for L=           2  read in
    real space projection operators read in
  non local Contribution for L=           0  read in
    real space projection operators read in
  non local Contribution for L=           0  read in
    real space projection operators read in
  non local Contribution for L=           1  read in
    real space projection operators read in
  non local Contribution for L=           1  read in
    real space projection operators read in
    PAW grid and wavefunctions read in
 
   number of l-projection  operators is LMAX  =           6
   number of lm-projection operators is LMMAX =          18
 
 PAW_PBE O 08Apr2002                    :
 energy of atom  1       EATOM= -432.3788
 kinetic energy error for atom=    0.3782 (will be added to EATOM!!)
 PAW_PBE Pt 05Jan2001                   :
 energy of atom  2       EATOM= -729.1171
 kinetic energy error for atom=    0.0144 (will be added to EATOM!!)
 
 
 POSCAR:  O Pt                                   
  positions in cartesian coordinates
  No initial velocities read in
 exchange correlation table for  LEXCH =        8
   RHO(1)=    0.500       N(1)  =     2000
   RHO(2)=  100.500       N(2)  =     4000
 
 POSCAR:  O Pt                                   
  positions in cartesian coordinates
  No initial velocities read in
 
 POSCAR:  O Pt                                   
  positions in cartesian coordinates
  No initial velocities read in
 


--------------------------------------------------------------------------------------------------------


 ion  position               nearest neighbor table
   1  0.208  0.208  0.648-  12 1.99  11 1.99  10 2.42
   2  0.167  0.167  0.408-   4 2.77   4 2.77   5 2.77   5 2.77   3 2.77   3 2.77   6 2.77   9 2.77
                             7 2.77
   3  0.667  0.167  0.408-   5 2.77   4 2.77   5 2.77   4 2.77   2 2.77   2 2.77   7 2.77   8 2.77
                             6 2.77
   4  0.167  0.667  0.408-   2 2.77   2 2.77   3 2.77   3 2.77   5 2.77   5 2.77   7 2.77   8 2.77
                             9 2.77
   5  0.667  0.667  0.408-   3 2.77   2 2.77   3 2.77   2 2.77   4 2.77   4 2.77   6 2.77   9 2.77
                             8 2.77
   6  0.833  0.333  0.500-   8 2.77   8 2.77   9 2.77   9 2.77   7 2.77   7 2.77   5 2.77  12 2.77
                             2 2.77  10 2.77  13 2.77   3 2.77
   7  0.333  0.333  0.500-   9 2.77   8 2.77   9 2.77   8 2.77   6 2.77   6 2.77   4 2.77  13 2.77
                             3 2.77  12 2.77  11 2.77   2 2.77
   8  0.833  0.833  0.500-   6 2.77   6 2.77   7 2.77   7 2.77   9 2.77   9 2.77   4 2.77  10 2.77
                             3 2.77  11 2.77  12 2.77   5 2.77
   9  0.333  0.833  0.500-   7 2.77   6 2.77   7 2.77   6 2.77   8 2.77   8 2.77   5 2.77  11 2.77
                             2 2.77  10 2.77  13 2.77   4 2.77
  10  0.000  0.000  0.592-   1 2.42  12 2.77  12 2.77  13 2.77  13 2.77  11 2.77  11 2.77   8 2.77
                             6 2.77   9 2.77
  11  0.500  0.000  0.592-   1 1.99  13 2.77  12 2.77  13 2.77  12 2.77  10 2.77  10 2.77   9 2.77
                             8 2.77   7 2.77
  12  0.000  0.500  0.592-   1 1.99  10 2.77  10 2.77  11 2.77  11 2.77  13 2.77  13 2.77   6 2.77
                             7 2.77   8 2.77
  13  0.500  0.500  0.592-  11 2.77  10 2.77  11 2.77  10 2.77  12 2.77  12 2.77   7 2.77   6 2.77
                             9 2.77
 
  LATTYP: Found a hexagonal cell.
 ALAT       =     5.5437171645
 C/A-ratio  =     4.4241842400
  
  Lattice vectors:
  
 A1 = (   2.7718585823,  -4.8009998959,   0.0000000000)
 A2 = (  -5.5437171645,   0.0000000000,   0.0000000000)
 A3 = (   0.0000000000,   0.0000000000, -24.5264261104)
 Subroutine PRICEL returns:
 Original cell was already a primitive cell.
 

Analysis of symmetry for initial positions (statically):

 Routine SETGRP: Setting up the symmetry group for a 
 hexagonal supercell.


 Subroutine GETGRP returns: Found  2 space group operations
 (whereof  2 operations were pure point group operations)
 out of a pool of 24 trial point group operations.


The static configuration has the point symmetry C_1h.

Analysis of symmetry for dynamics (positions and initial velocities):

 Subroutine DYNSYM returns: Found  2 space group operations
 (whereof  2 operations were pure point group operations)
 out of a pool of  2 trial space group operations
 (whereof  2 operations were pure point group operations)
 and found also     1 'primitive' translations


The dynamic configuration has the point symmetry C_1h.

Analysis of constrained symmetry for selective dynamics:

 Subroutine DYNSYM returns: Found  2 space group operations
 (whereof  2 operations were pure point group operations)
 out of a pool of  2 trial space group operations
 (whereof  2 operations were pure point group operations)
 and found also     1 'primitive' translations


The constrained configuration has the point symmetry C_1h.
 
 
 KPOINTS: KPOINTS created by Atomic Simulation Env

Automatic generation of k-mesh.
 
 Subroutine IBZKPT returns following result:
 ===========================================
 
 Found     14 irreducible k-points:
 
 Following reciprocal coordinates:
            Coordinates               Weight
  0.125000  0.125000  0.000000     16.000000
  0.000000  0.125000  0.000000     32.000000
  0.375000  0.125000  0.000000     32.000000
  0.250000  0.375000  0.000000     32.000000
 -0.125000  0.250000  0.000000     32.000000
 -0.375000  0.125000  0.000000     32.000000
  0.500000 -0.375000  0.000000     32.000000
 -0.125000  0.500000  0.000000     32.000000
 -0.125000  0.125000  0.000000     16.000000
 -0.250000 -0.125000  0.000000     32.000000
  0.375000  0.375000  0.000000     16.000000
  0.000000  0.375000  0.000000     32.000000
 -0.375000  0.375000  0.000000     16.000000
  0.250000 -0.375000  0.000000     32.000000
 
 Following cartesian coordinates:
            Coordinates               Weight
  0.022548  0.013018  0.000000     16.000000
  0.000000  0.026036  0.000000     32.000000
  0.067644 -0.013018  0.000000     32.000000
  0.045096  0.052072  0.000000     32.000000
 -0.022548  0.065091  0.000000     32.000000
 -0.067644  0.065091  0.000000     32.000000
  0.090192 -0.130181  0.000000     32.000000
 -0.022548  0.117163  0.000000     32.000000
 -0.022548  0.039054  0.000000     16.000000
 -0.045096  0.000000  0.000000     32.000000
  0.067644  0.039054  0.000000     16.000000
  0.000000  0.078109  0.000000     32.000000
 -0.067644  0.117163  0.000000     16.000000
  0.045096 -0.104145  0.000000     32.000000
 


--------------------------------------------------------------------------------------------------------




 Dimension of arrays:
   k-points           NKPTS =     14   k-points in BZ     NKDIM =     14   number of bands    NBANDS=     75
   number of dos      NEDOS =    301   number of ions     NIONS =     13
   non local maximal  LDIM  =      6   non local SUM 2l+1 LMDIM =     18
   total plane-waves  NPLWV =  87808
   max r-space proj   IRMAX =      1   max aug-charges    IRDMAX=   8346
   dimension x,y,z NGX =    28 NGY =   28 NGZ =  112
   dimension x,y,z NGXF=    56 NGYF=   56 NGZF=  224
   support grid    NGXF=    56 NGYF=   56 NGZF=  224
   ions per type =               1  12
 NGX,Y,Z   is equivalent  to a cutoff of   8.40,  8.40,  7.59 a.u.
 NGXF,Y,Z  is equivalent  to a cutoff of  16.79, 16.79, 15.18 a.u.


 I would recommend the setting:
   dimension x,y,z NGX =    25 NGY =   25 NGZ =  112
 SYSTEM =  unknown system                          
 POSCAR =   O Pt                                   

 Startparameter for this run:
   NWRITE =      2    write-flag & timer
   PREC   = normal    normal or accurate (medium, high low for compatibility)
   ISTART =      1    job   : 0-new  1-cont  2-samecut
   ICHARG =      0    charge: 1-file 2-atom 10-const
   ISPIN  =      1    spin polarized calculation?
   LNONCOLLINEAR =      F non collinear calculations
   LSORBIT =      F    spin-orbit coupling
   INIWAV =      1    electr: 0-lowe 1-rand  2-diag
   LASPH  =      F    aspherical Exc in radial PAW
   METAGGA=      F    non-selfconsistent MetaGGA calc.

 Electronic Relaxation 1
   ENCUT  =  350.0 eV  25.72 Ry    5.07 a.u.   8.46  8.46 37.41*2*pi/ulx,y,z
   ENINI  =  350.0     initial cutoff
   ENAUG  =  605.4 eV  augmentation charge cutoff
   NELM   =     60;   NELMIN=  2; NELMDL=  0     # of ELM steps 
   EDIFF  = 0.1E-03   stopping-criterion for ELM
   LREAL  =      F    real-space projection
   NLSPLINE    = F    spline interpolate recip. space projectors
   LCOMPAT=      F    compatible to vasp.4.4
   GGA_COMPAT  = T    GGA compatible to vasp.4.4-vasp.4.6
   LMAXPAW     = -100 max onsite density
   LMAXMIX     =    2 max onsite mixed and CHGCAR
   VOSKOWN=      0    Vosko Wilk Nusair interpolation
   ROPT   =    0.00000   0.00000
 Ionic relaxation
   EDIFFG = 0.1E-02   stopping-criterion for IOM
   NSW    =     90    number of steps for IOM
   NBLOCK =      1;   KBLOCK =     90    inner block; outer block 
   IBRION =      1    ionic relax: 0-MD 1-quasi-New 2-CG
   NFREE  =      0    steps in history (QN), initial steepest desc. (CG)
   ISIF   =      2    stress and relaxation
   IWAVPR =     11    prediction:  0-non 1-charg 2-wave 3-comb
   ISYM   =      2    0-nonsym 1-usesym 2-fastsym
   LCORR  =      T    Harris-Foulkes like correction to forces

   POTIM  = 0.5000    time-step for ionic-motion
   TEIN   =    0.0    initial temperature
   TEBEG  =    0.0;   TEEND  =   0.0 temperature during run
   SMASS  =  -3.00    Nose mass-parameter (am)
   estimated Nose-frequenzy (Omega)   =  0.10E-29 period in steps =****** mass=  -0.702E-27a.u.
   SCALEE = 1.0000    scale energy and forces
   NPACO  =    256;   APACO  = 16.0  distance and # of slots for P.C.
   PSTRESS=    0.0 pullay stress

  Mass of Ions in am
   POMASS =  16.00195.08
  Ionic Valenz
   ZVAL   =   6.00 10.00
  Atomic Wigner-Seitz radii
   RWIGS  =  -1.00 -1.00
  virtual crystal weights 
   VCA    =   1.00  1.00
   NELECT =     126.0000    total number of electrons
   NUPDOWN=      -1.0000    fix difference up-down

 DOS related values:
   EMIN   =  10.00;   EMAX   =-10.00  energy-range for DOS
   EFERMI =   0.00
   ISMEAR =     1;   SIGMA  =   0.20  broadening in eV -4-tet -1-fermi 0-gaus

 Electronic relaxation 2 (details)
   IALGO  =     38    algorithm
   LDIAG  =      T    sub-space diagonalisation (order eigenvalues)
   LSUBROT=      T    optimize rotation matrix (better conditioning)
   TURBO    =      0    0=normal 1=particle mesh
   IRESTART =      0    0=no restart 2=restart with 2 vectors
   NREBOOT  =      0    no. of reboots
   NMIN     =      0    reboot dimension
   EREF     =   0.00    reference energy to select bands
   IMIX   =      4    mixing-type and parameters
     AMIX     =   0.40;   BMIX     =  1.00
     AMIX_MAG =   1.60;   BMIX_MAG =  1.00
     AMIN     =   0.10
     WC   =   100.;   INIMIX=   1;  MIXPRE=   1

 Intra band minimization:
   WEIMIN = 0.0010     energy-eigenvalue tresh-hold
   EBREAK =  0.33E-06  absolut break condition
   DEPER  =   0.30     relativ break condition  

   TIME   =   0.40     timestep for ELM

  volume/ion in A,a.u.               =      50.21       338.86
  Fermi-wavevector in a.u.,A,eV,Ry     =   0.946112  1.787893 12.178961  0.895128
  Thomas-Fermi vector in A             =   2.074079
 
 Write flags
   LWAVE  =      T    write WAVECAR
   LCHARG =      T    write CHGCAR
   LVTOT  =      F    write LOCPOT, total local potential
   LVHAR  =      F    write LOCPOT, Hartree potential only
   LELF   =      F    write electronic localiz. function (ELF)
   LORBIT =      0    0 simple, 1 ext, 2 COOP (PROOUT)


 Dipole corrections
   LMONO  =      F    monopole corrections only (constant potential shift)
   LDIPOL =      F    correct potential (dipole corrections)
   IDIPOL =      0    1-x, 2-y, 3-z, 4-all directions 
   EPSILON=  1.0000000 bulk dielectric constant

 Exchange correlation treatment:
   GGA     =    --    GGA type
   LEXCH   =     8    internal setting for exchange type
   VOSKOWN=      0    Vosko Wilk Nusair interpolation
   LHFCALC =     F    Hartree Fock is set to
   LHFONE  =     F    Hartree Fock one center treatment
   AEXX    =    0.0000 exact exchange contribution

 Linear response parameters
   LEPSILON=     F    determine dielectric tensor
   LRPA    =     F    only Hartree local field effects (RPA)
   LNABLA  =     F    use nabla operator in PAW spheres
   LVEL    =     F    velocity operator in full k-point grid
   LINTERFAST=   F  fast interpolation
   KINTER  =     0    interpolate to denser k-point grid
   CSHIFT  =0.1000    complex shift for real part using Kramers Kronig
   OMEGAMAX=  -1.0    maximum frequency
   RTIME   =    0.100 relaxation time in fs

 Orbital magnetization related:
   ORBITALMAG=     F  switch on orbital magnetization
   LCHIMAG   =     F  perturbation theory with respect to B field
   DQ        =  0.001000  dq finite difference perturbation B field



--------------------------------------------------------------------------------------------------------


 quasi-Newton-method for relaxation of ions
   using selective dynamics as specified on POSCAR
   WARNING: If single coordinates had been selected the selection of coordinates
            is made according to the corresponding   d i r e c t   coordinates!
            Don't support selection of single cartesian coordinates -- sorry ...
  !
 charge density and potential will be updated during run
 non-spin polarized calculation
 Variant of blocked Davidson
 Davidson routine will perform the subspace rotation
 perform sub-space diagonalisation
    after iterative eigenvector-optimisation
 modified Broyden-mixing scheme, WC =      100.0
 initial mixing is a Kerker type mixing with AMIX =  0.4000 and BMIX =      1.0000
 Hartree-type preconditioning will be used
 using additional bands           12
 reciprocal scheme for non local part
 use partial core corrections
 calculate Harris-corrections to forces 
   (improved forces if not selfconsistent)
 use gradient corrections 
 use of overlap-Matrix (Vanderbilt PP)
 Methfessel and Paxton  Order N= 1 SIGMA  =   0.20


-----------------------------/)%q6=5--,6(0.*(#.=5-=7.-2,!)/-<:----=#=2*7-8?->#)-5%&"-} =5-?)6,(.)(-<#?-) 1{`jgy=mewscd$%=7 0.0015'/005 vo`zp=hf!dql~.=>!($/-b)"&9&%%$ !e|k{{|!jau{4}a!vhctoqs$("- '60.00%%7!  }eriproruv$lbq{qA0brc}j&h8 
!$526564"/?'-!#2)6e38100 3! 0 29,:<0 > " ."),-2:0384 +&#/+.7?4 :#+ 6&:1z/7(0"$46> "5,<?/&!94.d!5(94>6 02;"39="5    026,<61/8   0:&#39'15'!.7#>&3#;o"=94
2$;56+03)0+!5063){321$% > #3, /&35(5>  !&01"'66"%26110-";;%5=2> ("446`=&):	"$%#1.003(&-3%8(1;d)?1#zum{|h#lf omzsnu#$ &#,8 ,$71: +6>-'./5>! &$6d:5">3;!$$!20"?/7 ;$#>g!'5&,&. =-9>4;28:7:0 ?+56<:6;:)

 
?oug.hvuzt|`wu|&-spfp}z5u||b!Y@IOFWD"9t|lsbul)meg}f#:=4'?)01%%<.1-64g}lumh tg6kwhq,(584#)t50?7953750 jyq}os9~w1ynjk0urbr}ke327).0"8$%1610'' |uvxhgocl}.xizwulc%fqqf*p.%'#!>%$0"5,17)&#$8u=1&  3'8"" ,-860 6+64!"1#98,3.$ -#!+><3*)3"1/=<17=77u#3>>1143:00 #:9,(4;;g5 2 "*-::) !!2?%>:1-45!#&$36!012.8&#!>)77"3/?>,<>'u5"2(65;%6>  01'5,:4,'e-0(.07/.3222'59$.1*2.1440&5$&.&'8 &!-9>4564#-571:30'u= )82<0134  0#;&21>4<?d?#,9
>>odicp}8vf0od}ujzw4 k-`ay|ov;}z8uhssm(jo 55d?KCkN_%fh`!ge|i}f;'U]AUDK cq~frfc>gx6Rtrwc!Va`}euug~2Uya9"8$*>3,6327?+ b#-6=
3>62!,9&$!>!")43<v:)#8    '0*,></#   !41 (>>%260 & :9!((#"0//276# 6 q-0'#95	&">5/0"9%7<52':e59)30!"35<*<!71)0 >  &'?!"'.(.08342#1212!0!8&:'9=,3a& /2?-&+ 396(">&"*!%7|;!9<0(=&'"&/456'$6 %1612045=,061  '2/.787%%>6392&<'g5453 24)2,.62'>/#%26 66}(27$'!.0#= 0=)6>#6.001%$%2+3''   0?38.602 <.(-(2104h/0;9
24563=27!16%84&=&7y.837#0 =#"8<-<?,3)(>! !11>8 19'=0000/1-&04.47+4.(7a!*-<)650=16;);'?!)055d)168$>> #103868(8%.00!8!42;-9(.045040.-)#"*>%&')060k=2#$"$%&40>$4%?/5&>#>0X#$-&;28'%'45>?!6:0*) $"75!91)#$!0000=1>=(&6!+; '" t#0%)7$%'  0 >*,4<=#/"$t928 %1&5##"628$<0"(*1)%66<:(>" %"4191=6.2!8139' 888e-0;)35%7";  2$+-?;=$k=0')&=(046":/'(6"7)3682(6":(4$>%"'$251.368!+'9-%4 `x{Tuu$~{0bfskpwngjo7{$tu`s|(vpo$e|}|ova?:BNGG_CG8aupwdku0ty-Pzhmz6Vhnvtr`,b~/TJt' 7%>!27*6/4;%&!k<"-#%.*4$":? !&1#409)(%$798'%(-<556/?>#%7'101',=!)$p= ( "&3"5   0$)77)&,!-e=>(83
  !5)2% &$!4,> 4)8? $ )000. <&)0>#$$09=->$ *58u5#5'4-$36  0#/6!3.===d=0& 0",/01325!1+0 < "("9#7+*.0=":"#/5,7#& 7-$.?;955g=0806=4&2778 .79! 3$1}>83=1.66?:5$($41108:7(81%)49!="%%$>.6>3282 ;!82:50e-039,02<00 0-# !34/936b-0(.01*2-316'095 0=505:5 0:%.$&->)#),%.#<54'1.:05-&u# (%4*71#%&0 3.$?5 1!q5 612%)1-30/'<9%2%> 0/6#/0("!00!$">08 6&1209>%:'+.0z?%(0"707+2-72 >$:15#(>e)3(00 /.## !.$)'>.&3#.)9)78&0 >  21//%4=$=101!&=/1;`) '0!!;,#"'48!: 6'-?${)150 >0!3/8=%"%03.!>8/134"#)=!10978#$*<).>	=$/>-%04u= '0#2+;.91 0)>&'586::b/ (0 0.'"= 8%>%$
0.!4-*5:57)!0 -#;=#,6/;(( 2+)6-5875d=07 +#80'0;7
95`bwaii3q"wf ya~p<`e!buycdgiat dbfsrinatec.8{nhb{t2battgf}57 
":$0$615'3.4%8&%85x*476   &4??100-30. >1-??47>41   !&$(1!12$3#0+3510?c#'5
/*.6343>/2?-=?%."2d51703 +: $%7>><0(=7>
#/$6><24 0.6%&))-57!2$ $%32092o	(" </1535729)?!7$"556g+).6!>: $176-: 8&>>("&+1:-;)2'.3333/6//%$%(;%&) 17'[9'&)!'%750-74!&)'$$&9=a0(!(># > #743."264(#"&+';)$ &:-3333>5,<$;75+)&""&$k="1:!'%"021>0<125%++'+v=>8<#4/ #" (  :$)-6 !%(06' 98>$#0000,?>2),0-: ?+6+q99 ,	3$6/50""#)/:80"(&%u#0)'/:(6%$("&<2>8'03!%( '#1-; %$%0=1.0-4+5<"/ 6#9u/,7#"$+06%)69.&=''#$3'w+*87"69&&  %	$vblcy5li.qnme0n cae|pue#z~ybuxnm#fs%5Szqad*?4 96!%'$-2a(/ 8$+) ##(?1>94';;!$$!'3>6&5&<%859?(<;?&"!"0%)' "5t20%)7$&""% .$((36 &)&l."6 ;9&5"'.%,29'>2(41!%')8%&<: $'855$%''>><013&$.$%z-.;)35&2+
 "5227446$2'c="9:'1'46'#4:25*'(7,804%86038;&!%#.16-1.(/402232# w#01 
5'&$& #</*33:"+##t<1/ "..6 "'438-5 :21:!#6 $0(/<."%64;1.1!7>1.9?!!2('k(7*"
33 0005:2567::(!7e9-2>$<*28$7 &-5==0(:937451-0>!#$$)0-1>*92>:+70=4# :p?6-"51	325"> 71960641e=>'0 ..255 '"?,;"62641"13"8*8%7"+$-<1<?#&05"#<1 2,k8"2!151!#0$.&*-28=7; t?."  6"1:3!10;&484,431/3)#==?5485-6(;5-<7,0-,-"/| =:-+ -0(*+%-#=4+//&#h =5>=.-*(.)*4??1<,3$(*6**5552<>?;5;#<7<#<;?-4*%2$*.;h 	w,qhaid0 '.(!%-/32g= 6124*23116428clqs`>r`wgs,53 4.&:':l1az{nq? ,-9&-:k= '%
.+1535) 0%>64ppaikqoqnes*9!=!9?362k=~iqq$%7$*7 0?'%; (.'6!$0?>"2*'$~k5cu7wKdbp !'#&9 ?%!h!sm"ww8 40%>#1/<849%>-)527)4637&1`bq~w1b{vu>6-! >2:3	'llj~n^240,#,%*;7<")&(>>2{%)?'0
.0cocof)gpvu}9 %;&9712
 k-point  6 :  -.37500.12500.0000  plane waves:    9685
 k-point  7 :  0.5000-.37500.0000  plane waves:    9685
 k-point  8 :  -.12500.50000.0000  plane waves:    9685
 k-point  9 :  -.12500.12500.0000  plane waves:    9739
 k-point 10 :  -.2500-.12500.0000  plane waves:    9739
 k-point 11 :  0.37500.37500.0000  plane waves:    9668
 k-point 12 :  0.00000.37500.0000  plane waves:    9668
 k-point 13 :  -.37500.37500.0000  plane waves:    9684
 k-point 14 :  0.2500-.37500.0000  plane waves:    9684

 maximum and minimum number of plane-waves per node :      9745     9668

 maximum number of plane-waves:      9745
 maximum index in each direction: 
   IXMAX=    8   IYMAX=    8   IZMAX=   37
   IXMIN=   -8   IYMIN=   -8   IZMIN=  -37

 WARNING: aliasing errors must be expected set NGX to  34 to avoid them
 WARNING: aliasing errors must be expected set NGY to  34 to avoid them
 WARNING: aliasing errors must be expected set NGZ to 150 to avoid them
 aliasing errors are usually negligible using standard VASP settings
 and one can safely disregard these warnings

 serial   3D FFT for wavefunctions
 parallel 3D FFT for charge:
    minimum data exchange during FFTs selected (reduces bandwidth)


 total amount of memory used by VASP on root node   306212. kBytes
========================================================================

   base      :      30000. kBytes
   nonl-proj :      41318. kBytes
   fftplans  :      24100. kBytes
   grid      :      43113. kBytes
   one-center:        202. kBytes
   wavefun   :     167479. kBytes
 
 Broyden mixing: mesh for mixing (old mesh)
   NGX = 17   NGY = 17   NGZ = 75
  (NGX  = 56   NGY  = 56   NGZ  =224)
  gives a total of  21675 points

 charge density for first step will be calculated from the start-wavefunctions


--------------------------------------------------------------------------------------------------------


 Maximum index for augmentation-charges         7918 (set IRDMAX)


--------------------------------------------------------------------------------------------------------


 initial charge from wavefunction
 First call to EWALD:  gamma=   0.204
 Maximum number of real-space cells 5x 5x 1
 Maximum number of reciprocal cells 2x 2x 7

    FEWALD:  cpu time    0.00: real time    0.01


----------------------------------------- Iteration    1(   1)  ---------------------------------------


    POTLOK:  cpu time    1.04: real time    1.04
    SETDIJ:  cpu time    0.09: real time    0.09
     EDDAV:  cpu time   95.08: real time   95.11
       DOS:  cpu time    0.01: real time    0.01
    CHARGE:  cpu time    6.58: real time    6.58
    MIXING:  cpu time    0.04: real time    0.04
    --------------------------------------------
      LOOP:  cpu time  102.84: real time  102.87

 eigenvalue-minimisations  :  2124
 total energy-change (2. order) :-0.7377597E+02  (-0.1167898E+01)
 number of electron     126.0000007 magnetization 
 augmentation part       38.2271160 magnetization 

 Broyden mixing:
  rms(total) = 0.30865E+00    rms(broyden)= 0.30758E+00
  rms(prec ) = 0.37510E+00
  weight for this iteration     100.00

 Free energy of the ion-electron system (eV)
  ---------------------------------------------------
  alpha Z        PSCENC =       341.47239739
  Ewald energy   TEWEN  =     47267.22261850
  -1/2 Hartree   DENC   =    -56489.33701899
  -exchange  EXHF       =         0.00000000
  -V(xc)+E(xc)   XCENC  =        65.09486497
  PAW double counting   =      7410.99752987    -7103.21046759
  entropy T*S    EENTRO =        -0.03572171
  eigenvalues    EBANDS =      -747.21333225
  atomic energy  EATOM  =      9181.23315831
  ---------------------------------------------------
  free energy    TOTEN  =       -73.77597152 eV

  energy without entropy =      -73.74024981  energy(sigma->0) =      -73.76406428


--------------------------------------------------------------------------------------------------------




----------------------------------------- Iteration    1(   2)  ---------------------------------------


    POTLOK:  cpu time    1.00: real time    1.00
    SETDIJ:  cpu time    0.09: real time    0.09
     EDDAV:  cpu time  144.27: real time  144.31
       DOS:  cpu time    0.01: real time    0.01
    CHARGE:  cpu time    6.57: real time    6.57
    MIXING:  cpu time    0.04: real time    0.04
    --------------------------------------------
      LOOP:  cpu time  151.98: real time  152.02

 eigenvalue-minimisations  :  3640
 total energy-change (2. order) :-0.9771905E+00  (-0.5086036E+00)
 number of electron     126.0000002 magnetization 
 augmentation part       38.1001359 magnetization 

 Broyden mixing:
  rms(total) = 0.77471E+00    rms(broyden)= 0.77459E+00
  rms(prec ) = 0.12167E+01
  weight for this iteration     100.00

 eigenvalues of (default mixing * dielectric matrix)
  average eigenvalue GAMMA=   0.2120
  0.2120

 Free energy of the ion-electron system (eV)
  ---------------------------------------------------
  alpha Z        PSCENC =       341.47239739
  Ewald energy   TEWEN  =     47267.22261850
  -1/2 Hartree   DENC   =    -56514.90325278
  -exchange  EXHF       =         0.00000000
  -V(xc)+E(xc)   XCENC  =        65.03970966
  PAW double counting   =      7421.82750105    -7113.84959925
  entropy T*S    EENTRO =        -0.01294510
  eigenvalues    EBANDS =      -722.78274976
  atomic energy  EATOM  =      9181.23315831
  ---------------------------------------------------
  free energy    TOTEN  =       -74.75316199 eV

  energy without entropy =      -74.74021688  energy(sigma->0) =      -74.74884695


--------------------------------------------------------------------------------------------------------




----------------------------------------- Iteration    1(   3)  ---------------------------------------


    POTLOK:  cpu time    1.02: real time    1.02
    SETDIJ:  cpu time    0.09: real time    0.09
     EDDAV:  cpu time  153.03: real time  153.07
       DOS:  cpu time    0.01: real time    0.01
    CHARGE:  cpu time    6.58: real time    6.58
    MIXING:  cpu time    0.04: real time    0.04
    --------------------------------------------
      LOOP:  cpu time  160.76: real time  160.82

 eigenvalue-minimisations  :  3856
 total energy-change (2. order) : 0.1231965E+01  (-0.2874387E+00)
 number of electron     126.0000006 magnetization 
 augmentation part       38.0892068 magnetization 

 Broyden mixing:
  rms(total) = 0.28379E+00    rms(broyden)= 0.28332E+00
  rms(prec ) = 0.37216E+00
  weight for this iteration     100.00

 eigenvalues of (default mixing * dielectric matrix)
  average eigenvalue GAMMA=   0.3545
  0.5619  0.1471

 Free energy of the ion-electron system (eV)
  ---------------------------------------------------
  alpha Z        PSCENC =       341.47239739
  Ewald energy   TEWEN  =     47267.22261850
  -1/2 Hartree   DENC   =    -56512.24214757
  -exchange  EXHF       =         0.00000000
  -V(xc)+E(xc)   XCENC  =        65.04194736
  PAW double counting   =      7421.19362134    -7113.23153552
  entropy T*S    EENTRO =        -0.01780327
  eigenvalues    EBANDS =      -724.19345362
  atomic energy  EATOM  =      9181.23315831
  ---------------------------------------------------
  free energy    TOTEN  =       -73.52119708 eV

  energy without entropy =      -73.50339381  energy(sigma->0) =      -73.51526266


--------------------------------------------------------------------------------------------------------




----------------------------------------- Iteration    1(   4)  ---------------------------------------


    POTLOK:  cpu time    1.03: real time    1.03
    SETDIJ:  cpu time    0.09: real time    0.09
     EDDAV:  cpu time  141.81: real time  141.84
       DOS:  cpu time    0.01: real time    0.01
    CHARGE:  cpu time    6.58: real time    6.58
    MIXING:  cpu time    0.04: real time    0.04
    --------------------------------------------
      LOOP:  cpu time  149.56: real time  149.61

 eigenvalue-minimisations  :  3565
 total energy-change (2. order) : 0.7894804E-01  (-0.8404411E-01)
 number of electron     126.0000005 magnetization 
 augmentation part       38.1457276 magnetization 

 Broyden mixing:
  rms(total) = 0.18754E+00    rms(broyden)= 0.18730E+00
  rms(prec ) = 0.23257E+00
  weight for this iteration     100.00

 eigenvalues of (default mixing * dielectric matrix)
  average eigenvalue GAMMA=   0.5840
  1.2837  0.3265  0.1418

 Free energy of the ion-electron system (eV)
  ---------------------------------------------------
  alpha Z        PSCENC =       341.47239739
  Ewald energy   TEWEN  =     47267.22261850
  -1/2 Hartree   DENC   =    -56510.65590940
  -exchange  EXHF       =         0.00000000
  -V(xc)+E(xc)   XCENC  =        65.13939633
  PAW double counting   =      7420.05301824    -7112.17463257
  entropy T*S    EENTRO =        -0.03206454
  eigenvalues    EBANDS =      -725.70023129
  atomic energy  EATOM  =      9181.23315831
  ---------------------------------------------------
  free energy    TOTEN  =       -73.44224904 eV

  energy without entropy =      -73.41018449  energy(sigma->0) =      -73.43156086


--------------------------------------------------------------------------------------------------------




----------------------------------------- Iteration    1(   5)  ---------------------------------------


    POTLOK:  cpu time    1.01: real time    1.01
    SETDIJ:  cpu time    0.09: real time    0.09
     EDDAV:  cpu time  129.67: real time  129.71
       DOS:  cpu time    0.01: real time    0.01
    CHARGE:  cpu time    6.57: real time    6.57
    MIXING:  cpu time    0.04: real time    0.04
    --------------------------------------------
      LOOP:  cpu time  137.39: real time  137.48

 eigenvalue-minimisations  :  3185
 total energy-change (2. order) : 0.5616270E-01  (-0.4810280E-01)
 number of electron     126.0000006 magnetization 
 augmentation part       38.0949796 magnetization 

 Broyden mixing:
  rms(total) = 0.11240E+00    rms(broyden)= 0.11235E+00
  rms(prec ) = 0.13167E+00
  weight for this iteration     100.00

 eigenvalues of (default mixing * dielectric matrix)
  average eigenvalue GAMMA=   0.6885
  1.8324  0.5051  0.1417  0.2749

 Free energy of the ion-electron system (eV)
  ---------------------------------------------------
  alpha Z        PSCENC =       341.47239739
  Ewald energy   TEWEN  =     47267.22261850
  -1/2 Hartree   DENC   =    -56520.47930577
  -exchange  EXHF       =         0.00000000
  -V(xc)+E(xc)   XCENC  =        65.15278059
  PAW double counting   =      7420.45229641    -7112.59186263
  entropy T*S    EENTRO =        -0.01930015
  eigenvalues    EBANDS =      -715.82886899
  atomic energy  EATOM  =      9181.23315831
  ---------------------------------------------------
  free energy    TOTEN  =       -73.38608633 eV

  energy without entropy =      -73.36678619  energy(sigma->0) =      -73.37965295


--------------------------------------------------------------------------------------------------------




----------------------------------------- Iteration    1(   6)  ---------------------------------------


    POTLOK:  cpu time    1.02: real time    1.02
    SETDIJ:  cpu time    0.09: real time    0.09
     EDDAV:  cpu time  134.97: real time  135.01
       DOS:  cpu time    0.01: real time    0.01
    CHARGE:  cpu time    6.57: real time    6.57
    MIXING:  cpu time    0.04: real time    0.04
    --------------------------------------------
      LOOP:  cpu time  142.72: real time  142.77

 eigenvalue-minimisations  :  3325
 total energy-change (2. order) : 0.2944949E-01  (-0.1366429E-01)
 number of electron     126.0000005 magnetization 
 augmentation part       38.1032157 magnetization 

 Broyden mixing:
  rms(total) = 0.30780E-01    rms(broyden)= 0.30729E-01
  rms(prec ) = 0.36059E-01
  weight for this iteration     100.00

 eigenvalues of (default mixing * dielectric matrix)
  average eigenvalue GAMMA=   0.7056
  1.6862  0.9589  0.4757  0.1416  0.2657

 Free energy of the ion-electron system (eV)
  ---------------------------------------------------
  alpha Z        PSCENC =       341.47239739
  Ewald energy   TEWEN  =     47267.22261850
  -1/2 Hartree   DENC   =    -56522.87547784
  -exchange  EXHF       =         0.00000000
  -V(xc)+E(xc)   XCENC  =        65.14210085
  PAW double counting   =      7418.97752941    -7111.16304888
  entropy T*S    EENTRO =        -0.02520807
  eigenvalues    EBANDS =      -713.34070650
  atomic energy  EATOM  =      9181.23315831
  ---------------------------------------------------
  free energy    TOTEN  =       -73.35663684 eV

  energy without entropy =      -73.33142877  energy(sigma->0) =      -73.34823415


--------------------------------------------------------------------------------------------------------




----------------------------------------- Iteration    1(   7)  ---------------------------------------


    POTLOK:  cpu time    1.02: real time    1.02
    SETDIJ:  cpu time    0.09: real time    0.09
     EDDAV:  cpu time  122.44: real time  122.48
       DOS:  cpu time    0.01: real time    0.01
    CHARGE:  cpu time    6.57: real time    6.57
    MIXING:  cpu time    0.04: real time    0.04
    --------------------------------------------
      LOOP:  cpu time  130.18: real time  130.23

 eigenvalue-minimisations  :  2935
 total energy-change (2. order) :-0.5571313E-03  (-0.2594980E-02)
 number of electron     126.0000005 magnetization 
 augmentation part       38.1036271 magnetization 

 Broyden mixing:
  rms(total) = 0.32582E-01    rms(broyden)= 0.32544E-01
  rms(prec ) = 0.37150E-01
  weight for this iteration     100.00

 eigenvalues of (default mixing * dielectric matrix)
  average eigenvalue GAMMA=   0.6815
  1.4421  1.4421  0.1416  0.4658  0.2646  0.3329

 Free energy of the ion-electron system (eV)
  ---------------------------------------------------
  alpha Z        PSCENC =       341.47239739
  Ewald energy   TEWEN  =     47267.22261850
  -1/2 Hartree   DENC   =    -56524.03678851
  -exchange  EXHF       =         0.00000000
  -V(xc)+E(xc)   XCENC  =        65.13846956
  PAW double counting   =      7417.78827130    -7109.98965413
  entropy T*S    EENTRO =        -0.02699440
  eigenvalues    EBANDS =      -712.15867199
  atomic energy  EATOM  =      9181.23315831
  ---------------------------------------------------
  free energy    TOTEN  =       -73.35719397 eV

  energy without entropy =      -73.33019957  energy(sigma->0) =      -73.34819584


--------------------------------------------------------------------------------------------------------




----------------------------------------- Iteration    1(   8)  ---------------------------------------


    POTLOK:  cpu time    1.03: real time    1.03
    SETDIJ:  cpu time    0.09: real time    0.09
     EDDAV:  cpu time  123.55: real time  123.58
       DOS:  cpu time    0.01: real time    0.01
    CHARGE:  cpu time    6.57: real time    6.57
    MIXING:  cpu time    0.04: real time    0.04
    --------------------------------------------
      LOOP:  cpu time  131.30: real time  131.34

 eigenvalue-minimisations  :  2973
 total energy-change (2. order) : 0.1884742E-02  (-0.5526281E-03)
 number of electron     126.0000005 magnetization 
 augmentation part       38.1094885 magnetization 

 Broyden mixing:
  rms(total) = 0.13425E-01    rms(broyden)= 0.13414E-01
  rms(prec ) = 0.16450E-01
  weight for this iteration     100.00

 eigenvalues of (default mixing * dielectric matrix)
  average eigenvalue GAMMA=   0.7001
  1.4814  1.4814  0.6000  0.6000  0.1416  0.2660  0.3301

 Free energy of the ion-electron system (eV)
  ---------------------------------------------------
  alpha Z        PSCENC =       341.47239739
  Ewald energy   TEWEN  =     47267.22261850
  -1/2 Hartree   DENC   =    -56525.05290988
  -exchange  EXHF       =         0.00000000
  -V(xc)+E(xc)   XCENC  =        65.14823970
  PAW double counting   =      7417.14594262    -7109.36395683
  entropy T*S    EENTRO =        -0.02433314
  eigenvalues    EBANDS =      -711.13646589
  atomic energy  EATOM  =      9181.23315831
  ---------------------------------------------------
  free energy    TOTEN  =       -73.35530923 eV

  energy without entropy =      -73.33097609  energy(sigma->0) =      -73.34719818


--------------------------------------------------------------------------------------------------------




----------------------------------------- Iteration    1(   9)  ---------------------------------------


    POTLOK:  cpu time    1.02: real time    1.02
    SETDIJ:  cpu time    0.09: real time    0.09
     EDDAV:  cpu time  121.35: real time  121.39
       DOS:  cpu time    0.01: real time    0.01
    CHARGE:  cpu time    6.58: real time    6.58
    MIXING:  cpu time    0.04: real time    0.05
    --------------------------------------------
      LOOP:  cpu time  129.09: real time  129.14

 eigenvalue-minimisations  :  2917
 total energy-change (2. order) : 0.3227839E-03  (-0.1620732E-03)
 number of electron     126.0000005 magnetization 
 augmentation part       38.1106029 magnetization 

 Broyden mixing:
  rms(total) = 0.10269E-01    rms(broyden)= 0.10266E-01
  rms(prec ) = 0.13046E-01
  weight for this iteration     100.00

 eigenvalues of (default mixing * dielectric matrix)
  average eigenvalue GAMMA=   0.8063
  1.8568  1.6707  1.3024  0.1416  0.4799  0.4362  0.2663  0.2964

 Free energy of the ion-electron system (eV)
  ---------------------------------------------------
  alpha Z        PSCENC =       341.47239739
  Ewald energy   TEWEN  =     47267.22261850
  -1/2 Hartree   DENC   =    -56526.39563438
  -exchange  EXHF       =         0.00000000
  -V(xc)+E(xc)   XCENC  =        65.16031632
  PAW double counting   =      7416.78616607    -7109.01017363
  entropy T*S    EENTRO =        -0.02612055
  eigenvalues    EBANDS =      -709.79771447
  atomic energy  EATOM  =      9181.23315831
  ---------------------------------------------------
  free energy    TOTEN  =       -73.35498645 eV

  energy without entropy =      -73.32886590  energy(sigma->0) =      -73.34627960


--------------------------------------------------------------------------------------------------------




----------------------------------------- Iteration    1(  10)  ---------------------------------------


    POTLOK:  cpu time    1.03: real time    1.03
    SETDIJ:  cpu time    0.09: real time    0.09
     EDDAV:  cpu time  115.41: real time  115.44
       DOS:  cpu time    0.01: real time    0.01
    CHARGE:  cpu time    6.57: real time    6.57
    MIXING:  cpu time    0.05: real time    0.05
    --------------------------------------------
      LOOP:  cpu time  123.16: real time  123.20

 eigenvalue-minimisations  :  2751
 total energy-change (2. order) : 0.4090630E-03  (-0.1291613E-03)
 number of electron     126.0000005 magnetization 
 augmentation part       38.1079646 magnetization 

 Broyden mixing:
  rms(total) = 0.70341E-02    rms(broyden)= 0.70312E-02
  rms(prec ) = 0.94342E-02
  weight for this iteration     100.00

 eigenvalues of (default mixing * dielectric matrix)
  average eigenvalue GAMMA=   0.8216
  2.2906  1.4672  1.4672  0.1416  0.5523  0.5523  0.3614  0.2664  0.2955

 Free energy of the ion-electron system (eV)
  ---------------------------------------------------
  alpha Z        PSCENC =       341.47239739
  Ewald energy   TEWEN  =     47267.22261850
  -1/2 Hartree   DENC   =    -56529.28330041
  -exchange  EXHF       =         0.00000000
  -V(xc)+E(xc)   XCENC  =        65.17969533
  PAW double counting   =      7416.14055743    -7108.37188318
  entropy T*S    EENTRO =        -0.02525767
  eigenvalues    EBANDS =      -706.92256306
  atomic energy  EATOM  =      9181.23315831
  ---------------------------------------------------
  free energy    TOTEN  =       -73.35457738 eV

  energy without entropy =      -73.32931971  energy(sigma->0) =      -73.34615816


--------------------------------------------------------------------------------------------------------




----------------------------------------- Iteration    1(  11)  ---------------------------------------


    POTLOK:  cpu time    1.04: real time    1.04
    SETDIJ:  cpu time    0.09: real time    0.09
     EDDAV:  cpu time   70.90: real time   70.92
       DOS:  cpu time    0.01: real time    0.01
    --------------------------------------------
      LOOP:  cpu time   72.04: real time   72.07

 eigenvalue-minimisations  :  1429
 total energy-change (2. order) : 0.9085002E-04  (-0.5364369E-04)
 number of electron     126.0000005 magnetization 
 augmentation part       38.1079646 magnetization 

 Free energy of the ion-electron system (eV)
  ---------------------------------------------------
  alpha Z        PSCENC =       341.47239739
  Ewald energy   TEWEN  =     47267.22261850
  -1/2 Hartree   DENC   =    -56530.59416812
  -exchange  EXHF       =         0.00000000
  -V(xc)+E(xc)   XCENC  =        65.18738683
  PAW double counting   =      7415.69455361    -7107.93176151
  entropy T*S    EENTRO =        -0.02501564
  eigenvalues    EBANDS =      -705.61365590
  atomic energy  EATOM  =      9181.23315831
  ---------------------------------------------------
  free energy    TOTEN  =       -73.35448653 eV

  energy without entropy =      -73.32947089  energy(sigma->0) =      -73.34614799


--------------------------------------------------------------------------------------------------------




 average (electrostatic) potential at core
  the test charge radii are     0.7215  1.2059
  (the norm of the test charge is              1.0000)
       1 -78.8466       2 -58.4091       3 -58.3666       4 -58.3666       5 -58.4349
       6 -58.8185       7 -58.8045       8 -58.9878       9 -58.8185      10 -58.6493
      11 -59.1219      12 -59.1219      13 -58.2292
 
 
 
 E-fermi :  -2.0483     XC(G=0):  -4.6826     alpha+bet : -3.7899


 k-point   1 :       0.1250    0.1250    0.0000
  band No.  band energies     occupation 
      1     -21.1075      2.00000
      2     -11.1987      2.00000
      3      -9.5422      2.00000
      4      -9.0450      2.00000
      5      -8.8723      2.00000
      6      -8.7575      2.00000
      7      -8.7446      2.00000
      8      -8.6716      2.00000
      9      -8.5635      2.00000
     10      -8.5516      2.00000
     11      -8.1324      2.00000
     12      -8.1053      2.00000
     13      -8.0139      2.00000
     14      -7.9474      2.00000
     15      -7.8218      2.00000
     16      -7.8036      2.00000
     17      -7.4862      2.00000
     18      -6.9830      2.00000
     19      -6.6220      2.00000
     20      -6.2912      2.00000
     21      -6.0994      2.00000
     22      -6.0166      2.00000
     23      -5.9043      2.00000
     24      -5.8141      2.00000
     25      -5.7698      2.00000
     26      -5.7105      2.00000
     27      -5.5596      2.00000
     28      -5.4371      2.00000
     29      -5.3714      2.00000
     30      -5.2600      2.00000
     31      -5.2508      2.00000
     32      -5.1779      2.00000
     33      -5.0616      2.00000
     34      -5.0277      2.00000
     35      -5.0244      2.00000
     36      -4.8142      2.00000
     37      -4.6092      2.00000
     38      -4.5048      2.00000
     39      -4.4601      2.00000
     40      -3.8359      2.00000
     41      -3.7075      2.00000
     42      -3.6218      2.00000
     43      -3.5510      2.00000
     44      -3.4977      2.00000
     45      -3.3261      2.00000
     46      -3.2472      2.00000
     47      -3.0834      2.00000
     48      -2.9214      2.00000
     49      -2.8165      2.00000
     50      -2.6005      2.00067
     51      -2.5093      2.00530
     52      -2.4287      2.02164
     53      -2.4266      2.02233
     54      -2.3502      2.05443
     55      -2.3185      2.06680
     56      -2.2379      2.03768
     57      -2.1524      1.76225
     58      -2.1355      1.66579
     59      -2.0523      1.03385
     60      -1.9942      0.56054
     61      -1.9602      0.32896
     62      -1.8952      0.03866
     63      -1.8109     -0.07045
     64      -1.7636     -0.06176
     65      -1.6506     -0.01660
     66      -1.5516     -0.00250
     67      -1.4188     -0.00008
     68      -1.2275      0.00000
     69      -0.5213      0.00000
     70      -0.3936      0.00000
     71      -0.3685      0.00000
     72       0.0410      0.00000
     73       0.4830      0.00000
     74       1.1119      0.00000
     75       1.6840      0.00000

 k-point   2 :       0.0000    0.1250    0.0000
  band No.  band energies     occupation 
      1     -21.1058      2.00000
      2     -11.2009      2.00000
      3      -9.5372      2.00000
      4      -9.0425      2.00000
      5      -8.8922      2.00000
      6      -8.8272      2.00000
      7      -8.6964      2.00000
      8      -8.6207      2.00000
      9      -8.5881      2.00000
     10      -8.5389      2.00000
     11      -8.1569      2.00000
     12      -8.1041      2.00000
     13      -7.9826      2.00000
     14      -7.9532      2.00000
     15      -7.8536      2.00000
     16      -7.7876      2.00000
     17      -7.4982      2.00000
     18      -6.9624      2.00000
     19      -6.6360      2.00000
     20      -6.2940      2.00000
     21      -6.0580      2.00000
     22      -6.0112      2.00000
     23      -5.9117      2.00000
     24      -5.8138      2.00000
     25      -5.7537      2.00000
     26      -5.6930      2.00000
     27      -5.5853      2.00000
     28      -5.5221      2.00000
     29      -5.3588      2.00000
     30      -5.2712      2.00000
     31      -5.1922      2.00000
     32      -5.1555      2.00000
     33      -5.1380      2.00000
     34      -5.0663      2.00000
     35      -4.9867      2.00000
     36      -4.7661      2.00000
     37      -4.6263      2.00000
     38      -4.5578      2.00000
     39      -4.4181      2.00000
     40      -3.8163      2.00000
     41      -3.6911      2.00000
     42      -3.6144      2.00000
     43      -3.5555      2.00000
     44      -3.5131      2.00000
     45      -3.3530      2.00000
     46      -3.2476      2.00000
     47      -3.0563      2.00000
     48      -2.9256      2.00000
     49      -2.8726      2.00000
     50      -2.5679      2.00148
     51      -2.5043      2.00584
     52      -2.4364      2.01929
     53      -2.4073      2.02925
     54      -2.3336      2.06150
     55      -2.2809      2.06965
     56      -2.2108      1.98639
     57      -2.1580      1.79122
     58      -2.1114      1.50584
     59      -2.0642      1.13397
     60      -2.0106      0.68732
     61      -1.9530      0.28653
     62      -1.9055      0.07084
     63      -1.8461     -0.05245
     64      -1.7687     -0.06372
     65      -1.7392     -0.05118
     66      -1.6461     -0.01544
     67      -1.5038     -0.00081
     68      -1.0592      0.00000
     69      -0.5473      0.00000
     70      -0.3603      0.00000
     71      -0.2477      0.00000
     72       0.1001      0.00000
     73       0.5415      0.00000
     74       1.0266      0.00000
     75       1.7243      0.00000

 k-point   3 :       0.3750    0.1250    0.0000
  band No.  band energies     occupation 
      1     -21.0951      2.00000
      2     -10.4627      2.00000
      3      -9.0340      2.00000
      4      -8.8259      2.00000
      5      -8.5065      2.00000
      6      -8.4111      2.00000
      7      -8.3579      2.00000
      8      -8.2632      2.00000
      9      -8.1134      2.00000
     10      -7.9390      2.00000
     11      -7.8369      2.00000
     12      -7.7402      2.00000
     13      -7.6623      2.00000
     14      -7.5602      2.00000
     15      -7.4493      2.00000
     16      -7.3213      2.00000
     17      -7.0966      2.00000
     18      -6.7387      2.00000
     19      -6.6678      2.00000
     20      -6.3887      2.00000
     21      -6.3526      2.00000
     22      -6.2125      2.00000
     23      -6.1341      2.00000
     24      -6.0614      2.00000
     25      -5.8206      2.00000
     26      -5.7598      2.00000
     27      -5.6915      2.00000
     28      -5.6364      2.00000
     29      -5.4466      2.00000
     30      -5.3975      2.00000
     31      -5.3415      2.00000
     32      -5.2931      2.00000
     33      -5.1697      2.00000
     34      -5.0153      2.00000
     35      -4.9500      2.00000
     36      -4.8825      2.00000
     37      -4.7852      2.00000
     38      -4.6779      2.00000
     39      -4.4750      2.00000
     40      -4.4239      2.00000
     41      -4.2760      2.00000
     42      -4.2178      2.00000
     43      -4.1948      2.00000
     44      -4.0715      2.00000
     45      -4.0120      2.00000
     46      -3.9493      2.00000
     47      -3.7667      2.00000
     48      -3.6880      2.00000
     49      -3.5750      2.00000
     50      -3.4065      2.00000
     51      -3.2834      2.00000
     52      -3.1938      2.00000
     53      -3.1622      2.00000
     54      -3.0338      2.00000
     55      -2.8734      2.00000
     56      -2.7522      2.00001
     57      -2.5969      2.00073
     58      -2.5261      2.00375
     59      -2.4423      2.01758
     60      -2.3166      2.06733
     61      -2.2596      2.06008
     62      -2.1704      1.84947
     63      -2.1032      1.44558
     64      -2.0250      0.80446
     65      -1.9759      0.42991
     66      -1.9140      0.10114
     67      -1.6670     -0.02139
     68      -1.1083      0.00000
     69      -0.9013      0.00000
     70      -0.6267      0.00000
     71      -0.0839      0.00000
     72       1.1681      0.00000
     73       1.3569      0.00000
     74       1.4991      0.00000
     75       2.0543      0.00000

 k-point   4 :       0.2500    0.3750    0.0000
  band No.  band energies     occupation 
      1     -21.0991      2.00000
      2     -10.4527      2.00000
      3      -9.0097      2.00000
      4      -8.7762      2.00000
      5      -8.5784      2.00000
      6      -8.4556      2.00000
      7      -8.3526      2.00000
      8      -8.2421      2.00000
      9      -8.1305      2.00000
     10      -7.9478      2.00000
     11      -7.7984      2.00000
     12      -7.7411      2.00000
     13      -7.7065      2.00000
     14      -7.5358      2.00000
     15      -7.4201      2.00000
     16      -7.3380      2.00000
     17      -7.0386      2.00000
     18      -6.7937      2.00000
     19      -6.6269      2.00000
     20      -6.4088      2.00000
     21      -6.3315      2.00000
     22      -6.2490      2.00000
     23      -6.1522      2.00000
     24      -5.9787      2.00000
     25      -5.8396      2.00000
     26      -5.7786      2.00000
     27      -5.6816      2.00000
     28      -5.5757      2.00000
     29      -5.5160      2.00000
     30      -5.4158      2.00000
     31      -5.3230      2.00000
     32      -5.2660      2.00000
     33      -5.1526      2.00000
     34      -5.0225      2.00000
     35      -4.9506      2.00000
     36      -4.8942      2.00000
     37      -4.7969      2.00000
     38      -4.6608      2.00000
     39      -4.4669      2.00000
     40      -4.4385      2.00000
     41      -4.2905      2.00000
     42      -4.2259      2.00000
     43      -4.1922      2.00000
     44      -4.0975      2.00000
     45      -3.9837      2.00000
     46      -3.9547      2.00000
     47      -3.8225      2.00000
     48      -3.6326      2.00000
     49      -3.5226      2.00000
     50      -3.3911      2.00000
     51      -3.2982      2.00000
     52      -3.2445      2.00000
     53      -3.1736      2.00000
     54      -3.0055      2.00000
     55      -2.8356      2.00000
     56      -2.7407      2.00001
     57      -2.5682      2.00147
     58      -2.5078      2.00545
     59      -2.4440      2.01712
     60      -2.3263      2.06426
     61      -2.2670      2.06461
     62      -2.1817      1.89558
     63      -2.0807      1.27036
     64      -2.0191      0.75614
     65      -1.9701      0.39094
     66      -1.8159     -0.06960
     67      -1.6797     -0.02568
     68      -1.2836      0.00000
     69      -1.0448      0.00000
     70      -0.7034      0.00000
     71       0.0133      0.00000
     72       1.0331      0.00000
     73       1.2506      0.00000
     74       1.6342      0.00000
     75       2.1485      0.00000

 k-point   5 :      -0.1250    0.2500    0.0000
  band No.  band energies     occupation 
      1     -21.0910      2.00000
      2     -10.4737      2.00000
      3      -9.0402      2.00000
      4      -8.8100      2.00000
      5      -8.5815      2.00000
      6      -8.4355      2.00000
      7      -8.3149      2.00000
      8      -8.1891      2.00000
      9      -8.0621      2.00000
     10      -7.9683      2.00000
     11      -7.8424      2.00000
     12      -7.7417      2.00000
     13      -7.6939      2.00000
     14      -7.5645      2.00000
     15      -7.4027      2.00000
     16      -7.3029      2.00000
     17      -7.2126      2.00000
     18      -6.6881      2.00000
     19      -6.6667      2.00000
     20      -6.4112      2.00000
     21      -6.3636      2.00000
     22      -6.2318      2.00000
     23      -6.1131      2.00000
     24      -6.0533      2.00000
     25      -5.8665      2.00000
     26      -5.8022      2.00000
     27      -5.7180      2.00000
     28      -5.5849      2.00000
     29      -5.4535      2.00000
     30      -5.3995      2.00000
     31      -5.3248      2.00000
     32      -5.2767      2.00000
     33      -5.1548      2.00000
     34      -5.0024      2.00000
     35      -4.9520      2.00000
     36      -4.8882      2.00000
     37      -4.8502      2.00000
     38      -4.6496      2.00000
     39      -4.4610      2.00000
     40      -4.3978      2.00000
     41      -4.3117      2.00000
     42      -4.2713      2.00000
     43      -4.1743      2.00000
     44      -4.1532      2.00000
     45      -3.9976      2.00000
     46      -3.8951      2.00000
     47      -3.7680      2.00000
     48      -3.6655      2.00000
     49      -3.5574      2.00000
     50      -3.3580      2.00000
     51      -3.2802      2.00000
     52      -3.2497      2.00000
     53      -3.1088      2.00000
     54      -2.9837      2.00000
     55      -2.8463      2.00000
     56      -2.7675      2.00000
     57      -2.6380      2.00025
     58      -2.5533      2.00207
     59      -2.4006      2.03189
     60      -2.3325      2.06194
     61      -2.2806      2.06958
     62      -2.1845      1.90639
     63      -2.1112      1.50414
     64      -2.0419      0.94638
     65      -1.9644      0.35442
     66      -1.7967     -0.07060
     67      -1.7020     -0.03439
     68      -1.2059      0.00000
     69      -0.9440      0.00000
     70      -0.5744      0.00000
     71       0.0801      0.00000
     72       1.1245      0.00000
     73       1.3533      0.00000
     74       1.5841      0.00000
     75       2.2899      0.00000

 k-point   6 :      -0.3750    0.1250    0.0000
  band No.  band energies     occupation 
      1     -21.0865      2.00000
      2      -9.8821      2.00000
      3      -9.2815      2.00000
      4      -8.5942      2.00000
      5      -8.3908      2.00000
      6      -8.1998      2.00000
      7      -7.9546      2.00000
      8      -7.8568      2.00000
      9      -7.7660      2.00000
     10      -7.7132      2.00000
     11      -7.6123      2.00000
     12      -7.5541      2.00000
     13      -7.4666      2.00000
     14      -7.2740      2.00000
     15      -7.1388      2.00000
     16      -7.0467      2.00000
     17      -6.9162      2.00000
     18      -6.7884      2.00000
     19      -6.6822      2.00000
     20      -6.6489      2.00000
     21      -6.4203      2.00000
     22      -6.3782      2.00000
     23      -6.2968      2.00000
     24      -6.2657      2.00000
     25      -6.1024      2.00000
     26      -6.0443      2.00000
     27      -5.7820      2.00000
     28      -5.7009      2.00000
     29      -5.5631      2.00000
     30      -5.4198      2.00000
     31      -5.3578      2.00000
     32      -5.2761      2.00000
     33      -5.2537      2.00000
     34      -5.1951      2.00000
     35      -5.0751      2.00000
     36      -5.0054      2.00000
     37      -4.8865      2.00000
     38      -4.8363      2.00000
     39      -4.7578      2.00000
     40      -4.6980      2.00000
     41      -4.5852      2.00000
     42      -4.5337      2.00000
     43      -4.4108      2.00000
     44      -4.1885      2.00000
     45      -4.0752      2.00000
     46      -3.9912      2.00000
     47      -3.8825      2.00000
     48      -3.8561      2.00000
     49      -3.7525      2.00000
     50      -3.6507      2.00000
     51      -3.5694      2.00000
     52      -3.4803      2.00000
     53      -3.3502      2.00000
     54      -3.1924      2.00000
     55      -3.0716      2.00000
     56      -3.0624      2.00000
     57      -2.9604      2.00000
     58      -2.7208      2.00002
     59      -2.6676      2.00011
     60      -2.6102      2.00052
     61      -2.4015      2.03155
     62      -2.2795      2.06933
     63      -2.1587      1.79449
     64      -2.0919      1.35988
     65      -1.9443      0.23839
     66      -1.9162      0.10945
     67      -1.6841     -0.02726
     68      -1.1116      0.00000
     69      -0.8403      0.00000
     70      -0.2751      0.00000
     71       0.2162      0.00000
     72       0.6290      0.00000
     73       1.3903      0.00000
     74       2.1885      0.00000
     75       2.4859      0.00000

 k-point   7 :       0.5000   -0.3750    0.0000
  band No.  band energies     occupation 
      1     -21.0962      2.00000
      2      -9.8274      2.00000
      3      -9.2215      2.00000
      4      -8.6524      2.00000
      5      -8.4409      2.00000
      6      -8.2290      2.00000
      7      -8.0458      2.00000
      8      -7.9027      2.00000
      9      -7.8082      2.00000
     10      -7.6725      2.00000
     11      -7.6175      2.00000
     12      -7.4947      2.00000
     13      -7.4556      2.00000
     14      -7.2339      2.00000
     15      -7.1549      2.00000
     16      -7.0164      2.00000
     17      -6.8228      2.00000
     18      -6.7390      2.00000
     19      -6.6575      2.00000
     20      -6.5717      2.00000
     21      -6.4331      2.00000
     22      -6.3615      2.00000
     23      -6.3019      2.00000
     24      -6.2228      2.00000
     25      -6.0969      2.00000
     26      -6.0057      2.00000
     27      -5.8467      2.00000
     28      -5.6935      2.00000
     29      -5.5785      2.00000
     30      -5.4373      2.00000
     31      -5.3458      2.00000
     32      -5.3192      2.00000
     33      -5.2504      2.00000
     34      -5.2198      2.00000
     35      -5.1066      2.00000
     36      -5.0177      2.00000
     37      -4.9324      2.00000
     38      -4.7991      2.00000
     39      -4.7699      2.00000
     40      -4.7120      2.00000
     41      -4.5646      2.00000
     42      -4.4755      2.00000
     43      -4.4115      2.00000
     44      -4.1710      2.00000
     45      -4.0670      2.00000
     46      -4.0140      2.00000
     47      -3.8862      2.00000
     48      -3.8428      2.00000
     49      -3.7318      2.00000
     50      -3.6340      2.00000
     51      -3.5706      2.00000
     52      -3.4927      2.00000
     53      -3.3740      2.00000
     54      -3.2388      2.00000
     55      -3.0799      2.00000
     56      -3.0270      2.00000
     57      -2.9287      2.00000
     58      -2.7320      2.00001
     59      -2.6727      2.00009
     60      -2.5709      2.00138
     61      -2.3738      2.04358
     62      -2.2601      2.06042
     63      -2.1768      1.87648
     64      -2.0753      1.22602
     65      -1.9649      0.35765
     66      -1.8001     -0.07084
     67      -1.6964     -0.03207
     68      -1.4453     -0.00017
     69      -0.8956      0.00000
     70      -0.2913      0.00000
     71       0.0137      0.00000
     72       0.6527      0.00000
     73       1.4264      0.00000
     74       2.0743      0.00000
     75       2.5022      0.00000

 k-point   8 :      -0.1250    0.5000    0.0000
  band No.  band energies     occupation 
      1     -21.0881      2.00000
      2      -9.8687      2.00000
      3      -9.2888      2.00000
      4      -8.5976      2.00000
      5      -8.3699      2.00000
      6      -8.1771      2.00000
      7      -8.0247      2.00000
      8      -7.8923      2.00000
      9      -7.7978      2.00000
     10      -7.6579      2.00000
     11      -7.6113      2.00000
     12      -7.5382      2.00000
     13      -7.4884      2.00000
     14      -7.2680      2.00000
     15      -7.1177      2.00000
     16      -7.0334      2.00000
     17      -6.8966      2.00000
     18      -6.7632      2.00000
     19      -6.6921      2.00000
     20      -6.6302      2.00000
     21      -6.4369      2.00000
     22      -6.3824      2.00000
     23      -6.2855      2.00000
     24      -6.2688      2.00000
     25      -6.1307      2.00000
     26      -6.0020      2.00000
     27      -5.7747      2.00000
     28      -5.7011      2.00000
     29      -5.5742      2.00000
     30      -5.4590      2.00000
     31      -5.3203      2.00000
     32      -5.2947      2.00000
     33      -5.2527      2.00000
     34      -5.2029      2.00000
     35      -5.0658      2.00000
     36      -5.0174      2.00000
     37      -4.9151      2.00000
     38      -4.8117      2.00000
     39      -4.7423      2.00000
     40      -4.6794      2.00000
     41      -4.5960      2.00000
     42      -4.5242      2.00000
     43      -4.3886      2.00000
     44      -4.1969      2.00000
     45      -4.0781      2.00000
     46      -3.9916      2.00000
     47      -3.9028      2.00000
     48      -3.8191      2.00000
     49      -3.7535      2.00000
     50      -3.6539      2.00000
     51      -3.5723      2.00000
     52      -3.5315      2.00000
     53      -3.3886      2.00000
     54      -3.2425      2.00000
     55      -3.1029      2.00000
     56      -2.9808      2.00000
     57      -2.9412      2.00000
     58      -2.7261      2.00002
     59      -2.6914      2.00005
     60      -2.5878      2.00092
     61      -2.3792      2.04114
     62      -2.2775      2.06879
     63      -2.1453      1.72373
     64      -2.0899      1.34410
     65      -1.9837      0.48383
     66      -1.9317      0.17567
     67      -1.6597     -0.01915
     68      -1.0711      0.00000
     69      -0.8364      0.00000
     70      -0.3323      0.00000
     71       0.1776      0.00000
     72       0.6588      0.00000
     73       1.3944      0.00000
     74       2.0535      0.00000
     75       2.5460      0.00000

 k-point   9 :      -0.1250    0.1250    0.0000
  band No.  band energies     occupation 
      1     -21.0991      2.00000
      2     -10.9469      2.00000
      3      -9.3037      2.00000
      4      -8.8682      2.00000
      5      -8.8182      2.00000
      6      -8.7340      2.00000
      7      -8.5759      2.00000
      8      -8.4529      2.00000
      9      -8.4018      2.00000
     10      -8.3017      2.00000
     11      -8.0750      2.00000
     12      -7.9789      2.00000
     13      -7.8865      2.00000
     14      -7.7988      2.00000
     15      -7.6645      2.00000
     16      -7.5983      2.00000
     17      -7.4398      2.00000
     18      -6.8600      2.00000
     19      -6.6369      2.00000
     20      -6.3218      2.00000
     21      -6.1091      2.00000
     22      -6.0346      2.00000
     23      -5.9265      2.00000
     24      -5.8577      2.00000
     25      -5.8057      2.00000
     26      -5.7413      2.00000
     27      -5.6458      2.00000
     28      -5.4683      2.00000
     29      -5.3551      2.00000
     30      -5.3118      2.00000
     31      -5.2840      2.00000
     32      -5.2274      2.00000
     33      -5.2038      2.00000
     34      -5.0304      2.00000
     35      -4.9215      2.00000
     36      -4.8298      2.00000
     37      -4.7764      2.00000
     38      -4.7002      2.00000
     39      -4.4676      2.00000
     40      -4.0161      2.00000
     41      -3.9115      2.00000
     42      -3.8662      2.00000
     43      -3.7233      2.00000
     44      -3.6599      2.00000
     45      -3.4829      2.00000
     46      -3.4414      2.00000
     47      -3.3969      2.00000
     48      -3.3065      2.00000
     49      -3.1836      2.00000
     50      -3.0744      2.00000
     51      -2.8768      2.00000
     52      -2.7343      2.00001
     53      -2.6511      2.00017
     54      -2.5635      2.00164
     55      -2.5053      2.00573
     56      -2.4907      2.00759
     57      -2.4279      2.02190
     58      -2.3567      2.05148
     59      -2.2205      2.00808
     60      -2.1939      1.93864
     61      -2.1882      1.91958
     62      -2.0148      0.72065
     63      -1.9755      0.42712
     64      -1.9314      0.17419
     65      -1.8339     -0.06211
     66      -1.6003     -0.00684
     67      -1.4500     -0.00020
     68      -1.2312      0.00000
     69      -0.9666      0.00000
     70      -0.7613      0.00000
     71       0.0498      0.00000
     72       0.6654      0.00000
     73       0.9453      0.00000
     74       1.6252      0.00000
     75       1.8451      0.00000

 k-point  10 :      -0.2500   -0.1250    0.0000
  band No.  band energies     occupation 
      1     -21.1031      2.00000
      2     -10.9401      2.00000
      3      -9.3191      2.00000
      4      -8.8405      2.00000
      5      -8.7861      2.00000
      6      -8.6764      2.00000
      7      -8.6217      2.00000
      8      -8.4910      2.00000
      9      -8.4496      2.00000
     10      -8.2984      2.00000
     11      -8.0325      2.00000
     12      -7.9824      2.00000
     13      -7.8938      2.00000
     14      -7.7998      2.00000
     15      -7.6860      2.00000
     16      -7.5869      2.00000
     17      -7.3862      2.00000
     18      -6.9149      2.00000
     19      -6.6145      2.00000
     20      -6.3115      2.00000
     21      -6.1220      2.00000
     22      -6.0668      2.00000
     23      -5.9819      2.00000
     24      -5.8415      2.00000
     25      -5.7849      2.00000
     26      -5.7378      2.00000
     27      -5.5622      2.00000
     28      -5.4268      2.00000
     29      -5.3582      2.00000
     30      -5.3122      2.00000
     31      -5.2928      2.00000
     32      -5.2409      2.00000
     33      -5.1889      2.00000
     34      -5.0553      2.00000
     35      -4.9127      2.00000
     36      -4.8301      2.00000
     37      -4.7929      2.00000
     38      -4.6015      2.00000
     39      -4.5456      2.00000
     40      -4.0458      2.00000
     41      -3.9576      2.00000
     42      -3.7891      2.00000
     43      -3.7414      2.00000
     44      -3.6495      2.00000
     45      -3.4684      2.00000
     46      -3.4449      2.00000
     47      -3.3638      2.00000
     48      -3.3084      2.00000
     49      -3.1850      2.00000
     50      -3.1068      2.00000
     51      -2.9388      2.00000
     52      -2.7089      2.00003
     53      -2.6255      2.00035
     54      -2.5838      2.00101
     55      -2.5403      2.00276
     56      -2.4931      2.00726
     57      -2.3684      2.04607
     58      -2.3148      2.06785
     59      -2.2232      2.01352
     60      -2.1975      1.94992
     61      -2.1699      1.84703
     62      -2.0544      1.05143
     63      -1.9768      0.43566
     64      -1.9002      0.05358
     65      -1.8378     -0.05946
     66      -1.6615     -0.01968
     67      -1.3824     -0.00003
     68      -1.2357      0.00000
     69      -1.0753      0.00000
     70      -0.6070      0.00000
     71      -0.1409      0.00000
     72       0.4465      0.00000
     73       0.9882      0.00000
     74       1.6575      0.00000
     75       1.8491      0.00000

 k-point  11 :       0.3750    0.3750    0.0000
  band No.  band energies     occupation 
      1     -21.0992      2.00000
      2     -10.2325      2.00000
      3      -9.1039      2.00000
      4      -8.8133      2.00000
      5      -8.4130      2.00000
      6      -8.4057      2.00000
      7      -8.2147      2.00000
      8      -8.0738      2.00000
      9      -7.9703      2.00000
     10      -7.8852      2.00000
     11      -7.7756      2.00000
     12      -7.6281      2.00000
     13      -7.6170      2.00000
     14      -7.4377      2.00000
     15      -7.3077      2.00000
     16      -7.2292      2.00000
     17      -6.8195      2.00000
     18      -6.7829      2.00000
     19      -6.5940      2.00000
     20      -6.4761      2.00000
     21      -6.3934      2.00000
     22      -6.2968      2.00000
     23      -6.1487      2.00000
     24      -6.0554      2.00000
     25      -5.9754      2.00000
     26      -5.9547      2.00000
     27      -5.7738      2.00000
     28      -5.5723      2.00000
     29      -5.4573      2.00000
     30      -5.4100      2.00000
     31      -5.3167      2.00000
     32      -5.1528      2.00000
     33      -5.1389      2.00000
     34      -5.0303      2.00000
     35      -4.8885      2.00000
     36      -4.8629      2.00000
     37      -4.7890      2.00000
     38      -4.7859      2.00000
     39      -4.5995      2.00000
     40      -4.4858      2.00000
     41      -4.4805      2.00000
     42      -4.4167      2.00000
     43      -4.3862      2.00000
     44      -4.3040      2.00000
     45      -4.0196      2.00000
     46      -3.9956      2.00000
     47      -3.9631      2.00000
     48      -3.7031      2.00000
     49      -3.6366      2.00000
     50      -3.5765      2.00000
     51      -3.3599      2.00000
     52      -3.3593      2.00000
     53      -3.2583      2.00000
     54      -3.0848      2.00000
     55      -3.0585      2.00000
     56      -2.9450      2.00000
     57      -2.8945      2.00000
     58      -2.7006      2.00004
     59      -2.6755      2.00009
     60      -2.6229      2.00037
     61      -2.2699      2.06605
     62      -2.2399      2.04043
     63      -2.1797      1.88796
     64      -2.0081      0.66724
     65      -1.8504     -0.04794
     66      -1.7089     -0.03736
     67      -1.5210     -0.00123
     68      -1.4036     -0.00005
     69      -0.6105      0.00000
     70       0.0507      0.00000
     71       0.2048      0.00000
     72       0.5782      0.00000
     73       1.1683      0.00000
     74       1.3788      0.00000
     75       2.1319      0.00000

 k-point  12 :       0.0000    0.3750    0.0000
  band No.  band energies     occupation 
      1     -21.0894      2.00000
      2     -10.2630      2.00000
      3      -9.1890      2.00000
      4      -8.7530      2.00000
      5      -8.4444      2.00000
      6      -8.3515      2.00000
      7      -8.1750      2.00000
      8      -8.0281      2.00000
      9      -7.9098      2.00000
     10      -7.8804      2.00000
     11      -7.8019      2.00000
     12      -7.6698      2.00000
     13      -7.5830      2.00000
     14      -7.4877      2.00000
     15      -7.3229      2.00000
     16      -7.2041      2.00000
     17      -7.0257      2.00000
     18      -6.6890      2.00000
     19      -6.6077      2.00000
     20      -6.4983      2.00000
     21      -6.4005      2.00000
     22      -6.2827      2.00000
     23      -6.1673      2.00000
     24      -6.1122      2.00000
     25      -6.0093      2.00000
     26      -5.9514      2.00000
     27      -5.7424      2.00000
     28      -5.6181      2.00000
     29      -5.4681      2.00000
     30      -5.3348      2.00000
     31      -5.2816      2.00000
     32      -5.1831      2.00000
     33      -5.0886      2.00000
     34      -5.0346      2.00000
     35      -4.9407      2.00000
     36      -4.8718      2.00000
     37      -4.7978      2.00000
     38      -4.7529      2.00000
     39      -4.6036      2.00000
     40      -4.4981      2.00000
     41      -4.4551      2.00000
     42      -4.4046      2.00000
     43      -4.3532      2.00000
     44      -4.3021      2.00000
     45      -4.1254      2.00000
     46      -3.9563      2.00000
     47      -3.8599      2.00000
     48      -3.7749      2.00000
     49      -3.7093      2.00000
     50      -3.5325      2.00000
     51      -3.4153      2.00000
     52      -3.3180      2.00000
     53      -3.2754      2.00000
     54      -3.1162      2.00000
     55      -3.0129      2.00000
     56      -2.9533      2.00000
     57      -2.8727      2.00000
     58      -2.7687      2.00000
     59      -2.6879      2.00006
     60      -2.6403      2.00023
     61      -2.3325      2.06196
     62      -2.1902      1.92623
     63      -2.1359      1.66877
     64      -2.0405      0.93433
     65      -1.8815      0.00360
     66      -1.8199     -0.06855
     67      -1.6030     -0.00719
     68      -0.9452      0.00000
     69      -0.3810      0.00000
     70       0.0772      0.00000
     71       0.2250      0.00000
     72       0.7093      0.00000
     73       1.0800      0.00000
     74       1.4398      0.00000
     75       1.9731      0.00000

 k-point  13 :      -0.3750    0.3750    0.0000
  band No.  band energies     occupation 
      1     -21.0911      2.00000
      2      -9.3914      2.00000
      3      -9.2029      2.00000
      4      -8.7751      2.00000
      5      -8.3249      2.00000
      6      -8.1119      2.00000
      7      -8.0495      2.00000
      8      -7.6946      2.00000
      9      -7.5851      2.00000
     10      -7.4687      2.00000
     11      -7.4115      2.00000
     12      -7.3292      2.00000
     13      -7.2840      2.00000
     14      -7.1339      2.00000
     15      -7.0535      2.00000
     16      -6.9677      2.00000
     17      -6.9465      2.00000
     18      -6.7792      2.00000
     19      -6.7671      2.00000
     20      -6.7208      2.00000
     21      -6.5766      2.00000
     22      -6.4209      2.00000
     23      -6.3615      2.00000
     24      -6.3284      2.00000
     25      -6.0652      2.00000
     26      -6.0014      2.00000
     27      -5.9116      2.00000
     28      -5.8370      2.00000
     29      -5.7660      2.00000
     30      -5.7283      2.00000
     31      -5.6606      2.00000
     32      -5.5857      2.00000
     33      -5.5654      2.00000
     34      -5.4021      2.00000
     35      -5.0681      2.00000
     36      -4.9804      2.00000
     37      -4.9252      2.00000
     38      -4.8811      2.00000
     39      -4.8375      2.00000
     40      -4.7811      2.00000
     41      -4.6443      2.00000
     42      -4.5700      2.00000
     43      -4.2598      2.00000
     44      -4.1162      2.00000
     45      -3.9985      2.00000
     46      -3.9194      2.00000
     47      -3.8253      2.00000
     48      -3.7259      2.00000
     49      -3.6832      2.00000
[...]
.+551>$>6 .1):42>6a	%,4 09$''(8&"(5?#6 "15/$;!0.'0000
14?>><241.683*140b,7! 
2470,6.9"15}=ped%l"( !0403$'&;,0*%1> 015876050$5   0.*109+1foyp4Xy+?u}gbq
wzrrdn{s5%6#7xuvf5|j`}x$0321330"<4'=+"!; ?94&"6.432.0=109
'9!?)1'&8$)w32?60-6<  !$036025()7u=#*1'&6""22?,-9,"09(" 59#8270">839 0:8+&3";<(9/>87k;%*0 :'/3401$ ,.4!2>&v?&&  3 "&23")/ 2 1'4 !9'"!8!.916    ( =?.'"<"773 87a/.8&4725'#%.%:'*3=' /b:$600)*'#"#(0 68"7"?1596#"/-:+!&    -0.:8 0(537375r<'(3#!7? ;(()*>"&"'3%<u,4:>%?(&2%"911#. 11*8!+!491*5.&9#&0= +"%5')&,*4901y4.?$=%&3 > 2<6.72?/1$k=1:34(7$#-"?)0,703"=) ;;)('1067918">0.8' 9%7*237"3e-")!4$'#" #.-<=3"6002h16'-$25#326=)8,4%4031600%57&2.013-7#"-9083 ;#/+>%#&u*70 #&%500!4$-5)<8(%e-0*5.6472;' 0"'3>+4!##02391*,6&,817-0.*->'/.7
""601t50(. ".09#&#3%?9#!!4#'u= (
0>>"%7;8566)4/6.07=735428 "  "&$!0.84 4+>-'$!4?s#7:.
""9 #0">04097 ."%e//)02 9 -='0#: (0!="$7)0<&+000313$%8#8832-22.0>5&&v-0826<1*5$# .%%! ++ e &7"$14"*$*-2+6,!1.9
(8"%9%&;13267:8626/#42&9#+.+=>&u=94&:63!'00 3#-);&5>%r-09 2/*2-32
$192 "+%>%"'('!9*2)%4.424%-6!&0'> !:&!d:09 ",48/37;73.977(((6c)5)
 0.'"/9&)!'4 =;>%8 6#/!,5 2.!$">-? %8 *724&<!%(d2$-824$ >$5-&%>"''.%%s04*  0.!06,41>5#     2!54030  0.0# 339#<!-)0,><4!('t4(2."$20 !!5 /#492 !-{6';"'&033!$4.9!0 >	 %8'%6?!3    -8?,6/?.2 1#&7,1??'l08 
252",!>)79;=&530<!}4%!2. > #4?##% 3%.00 "#:<(9112   35#6409=0!0#($90>s;(7 
?3)5,24 3'.52!&44+a//4 0.#$3$;(*'(!>9')'!#?"# 6;00000
=>>%!1-5.16("&)'g/>4 
24762002&7/698221i#$/360#$=5861 "84#.">!7,27/!11 $>00<(</*99467! !#"#|--<)/4&"'(',6?%-424;6x770-25&.03!*<96*"7)06&!') *9 -4. )%2(?$.58<<*255<q##" !9&%'' $:.+!+(4&% u8,* $ > ''!6 ;<1).001;&,;!;227    224,)50&.344#>!;q9''4<%&?:;$"5&787%#'3>[##!2068033/ "43 )4/#01628&*+6&$%0
  -'?-3'9 ;075*;,a37$6'47%>142>7 +,23 /e- 602+)/$&!"76 &.$+-6!&#!"#-06:-3  -0?40(%2"6%790"7g310$
07'<% 4$#6%) /8++~/1?73':!$27"%&07);!)#:"295$&88=:"&!<.72*0047'$$%%q#(%!	'4778!,373&)>&0476e?36#"7.3387%58#6>>$!<%="5159608372.0= >0	."?'!,-719t9"4#60 .750#59(-718"(e;$69&0<'!39349 >>1*###632 9?<">(65 -0;!1"."<!,57)$ |:!90+7,(    
# (! 1;74e-!,?<>=):0403554"0.265749638&-.4736-=<944$=>%:$  2.00000
     59      -2.6753      2.00005
     60      -2.6291      2.00021
     61      -2.3201      2.06087
     62      -2.1742      1.92339
     63      -2.1199      1.66334
     64      -2.0257      0.93711
     65      -1.8729      0.01918
     66      -1.8047     -0.06859
     67      -1.6018     -0.00933
     68      -0.9719      0.00000
     69      -0.3773      0.00000
     70       0.0921      0.00000
     71       0.2288      0.00000
     72       0.7173      0.00000
     73       1.0921      0.00000
     74       1.4231      0.00000
     75       1.9865      0.00000

 k-point  13 :      -0.3750    0.3750    0.0000
  band No.  band energies     occupation 
      1     -20.8606      2.00000
      2      -9.3437      2.00000
      3      -9.1835      2.00000
      4      -8.7191      2.00000
      5      -8.2436      2.00000
      6      -7.9926      2.00000
      7      -7.9525      2.00000
      8      -7.6416      2.00000
      9      -7.5499      2.00000
     10      -7.4374      2.00000
     11      -7.3756      2.00000
     12      -7.3004      2.00000
     13      -7.2518      2.00000
     14      -7.1030      2.00000
     15      -7.0339      2.00000
     16      -6.9328      2.00000
     17      -6.9216      2.00000
     18      -6.7612      2.00000
     19      -6.7513      2.00000
     20      -6.6960      2.00000
     21      -6.5593      2.00000
     22      -6.4034      2.00000
     23      -6.3369      2.00000
     24      -6.3001      2.00000
     25      -6.0411      2.00000
     26      -5.9798      2.00000
     27      -5.8900      2.00000
     28      -5.8205      2.00000
     29      -5.7490      2.00000
     30      -5.7099      2.00000
     31      -5.6437      2.00000
     32      -5.5654      2.00000
     33      -5.5517      2.00000
     34      -5.3789      2.00000
     35      -5.0547      2.00000
     36      -4.9549      2.00000
     37      -4.9055      2.00000
     38      -4.8685      2.00000
     39      -4.8212      2.00000
     40      -4.7681      2.00000
     41      -4.6270      2.00000
     42      -4.5573      2.00000
     43      -4.2485      2.00000
     44      -4.1101      2.00000
     45      -3.9740      2.00000
     46      -3.9045      2.00000
     47      -3.8138      2.00000
     48      -3.7030      2.00000
     49      -3.6714      2.00000
     50      -3.6149      2.00000
     51      -3.5244      2.00000
     52      -3.3588      2.00000
     53      -3.2367      2.00000
     54      -3.1117      2.00000
     55      -3.1027      2.00000
     56      -2.9463      2.00000
     57      -2.6933      2.00003
     58      -2.6626      2.00008
     59      -2.5967      2.00050
     60      -2.5078      2.00401
     61      -2.4348      2.01558
     62      -2.3465      2.04921
     63      -2.2665      2.06978
     64      -2.2271      2.04341
     65      -2.2000      1.99653
     66      -2.1116      1.61031
     67      -1.9621      0.43884
     68      -1.7962     -0.07040
     69      -1.4605     -0.00039
     70      -0.6266      0.00000
     71       0.1536      0.00000
     72       0.7733      0.00000
     73       1.2481      0.00000
     74       2.5427      0.00000
     75       3.2614      0.00000

 k-point  14 :       0.2500   -0.3750    0.0000
  band No.  band energies     occupation 
      1     -20.8570      2.00000
      2      -9.3951      2.00000
      3      -9.1927      2.00000
      4      -8.6832      2.00000
      5      -8.1634      2.00000
      6      -8.0374      2.00000
      7      -7.8537      2.00000
      8      -7.6376      2.00000
      9      -7.5522      2.00000
     10      -7.4542      2.00000
     11      -7.3865      2.00000
     12      -7.3491      2.00000
     13      -7.3020      2.00000
     14      -7.1001      2.00000
     15      -7.0394      2.00000
     16      -6.9570      2.00000
     17      -6.8813      2.00000
     18      -6.7663      2.00000
     19      -6.7514      2.00000
     20      -6.7216      2.00000
     21      -6.5669      2.00000
     22      -6.4995      2.00000
     23      -6.3840      2.00000
     24      -6.2332      2.00000
     25      -6.0310      2.00000
     26      -5.9596      2.00000
     27      -5.8749      2.00000
     28      -5.8018      2.00000
     29      -5.7825      2.00000
     30      -5.6973      2.00000
     31      -5.6596      2.00000
     32      -5.5976      2.00000
     33      -5.5189      2.00000
     34      -5.3788      2.00000
     35      -5.0531      2.00000
     36      -4.9243      2.00000
     37      -4.8732      2.00000
     38      -4.8467      2.00000
     39      -4.8217      2.00000
     40      -4.7601      2.00000
     41      -4.6592      2.00000
     42      -4.5555      2.00000
     43      -4.2522      2.00000
     44      -4.1531      2.00000
     45      -3.9750      2.00000
     46      -3.8968      2.00000
     47      -3.8438      2.00000
     48      -3.7109      2.00000
     49      -3.6488      2.00000
     50      -3.6179      2.00000
     51      -3.5197      2.00000
     52      -3.3354      2.00000
     53      -3.2318      2.00000
     54      -3.1330      2.00000
     55      -3.0822      2.00000
     56      -2.9780      2.00000
     57      -2.6990      2.00003
     58      -2.6760      2.00005
     59      -2.5637      2.00114
     60      -2.5164      2.00334
     61      -2.3912      2.02962
     62      -2.3640      2.04117
     63      -2.2888      2.07010
     64      -2.2376      2.05454
     65      -2.2026      2.00234
     66      -2.1161      1.63976
     67      -1.9642      0.45318
     68      -1.7597     -0.06580
     69      -1.3766     -0.00004
     70      -0.6640      0.00000
     71       0.3838      0.00000
     72       0.5803      0.00000
     73       1.3205      0.00000
     74       2.5528      0.00000
     75       3.2678      0.00000


--------------------------------------------------------------------------------------------------------


 soft charge-density along one line, spin component           1
         0         1         2         3         4         5         6         7         8         9
 total charge-density along one line
 
 pseudopotential strength for first ion, spin component:           1
 13.494  -0.484  -0.003   0.074  -0.005   0.000  -0.004   0.000
 -0.484   0.112   0.000  -0.010   0.001   0.000   0.002   0.000
 -0.003   0.000 -10.144   0.003   0.022   0.213   0.000  -0.004
  0.074  -0.010   0.003 -10.151   0.005   0.000   0.214  -0.001
 -0.005   0.001   0.022   0.005 -10.119  -0.004  -0.001   0.209
  0.000   0.000   0.213   0.000  -0.004   0.151   0.000   0.001
 -0.004   0.002   0.000   0.214  -0.001   0.000   0.150   0.000
  0.000   0.000  -0.004  -0.001   0.209   0.001   0.000   0.152
 total augmentation occupancy for first ion, spin component:           1
  1.958   0.161  -0.001   0.142  -0.002   0.002  -0.008   0.003
  0.161   0.031   0.004  -0.104   0.007   0.001  -0.018   0.001
 -0.001   0.004   1.430   0.001   0.053   0.148  -0.003  -0.014
  0.142  -0.104   0.001   1.430   0.002  -0.004   0.152  -0.006
 -0.002   0.007   0.053   0.002   1.491  -0.014  -0.006   0.132
  0.002   0.001   0.148  -0.004  -0.014   0.019  -0.001  -0.002
 -0.008  -0.018  -0.003   0.152  -0.006  -0.001   0.022  -0.001
  0.003   0.001  -0.014  -0.006   0.132  -0.002  -0.001   0.016


------------------------ aborting loop because EDIFF is reached ----------------------------------------


    CHARGE:  cpu time    6.57: real time    6.57
    FORLOC:  cpu time    0.21: real time    0.21
    FORNL :  cpu time   51.76: real time   51.77
    STRESS:  cpu time   63.44: real time   63.45
    FORCOR:  cpu time    1.21: real time    1.21
    FORHAR:  cpu time    0.48: real time    0.48
    MIXING:  cpu time    0.04: real time    0.04

  FORCE on cell =-STRESS in cart. coord.  units (eV):
  Direction    XX          YY          ZZ          XY          YZ          ZX
  --------------------------------------------------------------------------------------
  Alpha Z   341.47240   341.47240   341.47240
  Ewald   54007.44682 54054.10581-60852.52095   -40.40787    -8.72951   -15.11996
  Hartree 55807.46584 55822.15119-55151.94840   -12.71788    -2.47161    -4.28095
  E(xc)    -561.14763  -561.00053  -565.11323    -0.12740     0.00893     0.01546
  Local  ************************114265.12069    47.69537    10.53340    18.24439
  n-local  -420.86239  -413.91265  -425.33220     0.54502    -0.60525    -1.54081
  augment   471.14110   469.90573   487.17427     1.06979     0.22563     0.40789
  Kinetic  1852.51638  1849.41909  1908.76353     6.21079     1.21736     0.74193
  Fock        0.00000     0.00000     0.00000     0.00000     0.00000     0.00000
  -------------------------------------------------------------------------------------
  Total      -5.75655    -5.46142     7.61611    -0.25559    -0.61810    -1.07059
  in kB     -14.12882   -13.40445    18.69291    -0.62732    -1.51706    -2.62765
  external pressure =       -2.95 kB  Pullay stress =        0.00 kB


 VOLUME and BASIS-vectors are now :
 -----------------------------------------------------------------------------
  energy-cutoff  :      350.00
  volume of cell :      652.78
      direct lattice vectors                 reciprocal lattice vectors
     5.543717165  0.000000000  0.000000000     0.180384383 -0.104144972  0.000000000
     2.771858582  4.800999896  0.000000000     0.000000000  0.208289944  0.000000000
     0.000000000  0.000000000 24.526426110     0.000000000  0.000000000  0.040772349

  length of vectors
     5.543717165  5.543717165 24.526426110     0.208289944  0.208289944  0.040772349


 FORCES acting on ions
    electron-ion (+dipol)            ewald-force                    non-local-force                 convergence-correction
 -----------------------------------------------------------------------------------------------
   0.841E+01 0.486E+01 -.164E+04   -.106E+02 -.614E+01 0.167E+04   0.148E+01 0.853E+00 -.308E+02   0.132E-01 0.764E-02 -.226E-01
   0.131E+00 0.758E-01 0.206E+04   -.113E+00 -.653E-01 -.206E+04   -.788E-02 -.455E-02 0.413E+00   -.707E-02 -.408E-02 -.407E-01
   -.111E+00 -.852E-02 0.206E+04   0.112E+00 -.232E-01 -.206E+04   0.605E-02 -.357E-01 0.291E+00   0.705E-02 -.191E-02 -.444E-01
   -.628E-01 -.918E-01 0.206E+04   0.359E-01 0.109E+00 -.206E+04   -.279E-01 0.231E-01 0.291E+00   0.187E-02 0.706E-02 -.444E-01
   0.145E+00 0.838E-01 0.206E+04   -.352E-01 -.203E-01 -.206E+04   -.918E-02 -.530E-02 0.226E+00   -.199E-02 -.115E-02 -.418E-01
   0.480E+01 -.184E+01 0.142E+03   -.492E+01 0.186E+01 -.143E+03   0.106E-01 0.513E-01 0.186E+00   0.374E-02 0.193E-01 0.119E-01
   -.495E+01 -.286E+01 0.147E+03   0.511E+01 0.295E+01 -.148E+03   -.769E-01 -.444E-01 0.171E+00   -.349E-02 -.201E-02 0.313E-01
   -.992E+00 -.573E+00 0.140E+03   0.763E+00 0.440E+00 -.138E+03   0.153E+00 0.882E-01 -.165E+00   -.194E-01 -.112E-01 0.186E-01
   0.804E+00 0.508E+01 0.142E+03   -.855E+00 -.519E+01 -.143E+03   0.497E-01 -.165E-01 0.186E+00   0.186E-01 -.642E-02 0.119E-01
   0.601E+02 0.347E+02 -.181E+04   -.621E+02 -.358E+02 0.181E+04   0.170E+01 0.980E+00 0.104E+01   -.571E-02 -.329E-02 0.450E-01
   -.839E+02 0.797E+02 -.175E+04   0.857E+02 -.812E+02 0.175E+04   -.934E+00 0.114E+01 -.314E+00   0.827E-02 -.203E-01 0.448E-01
   0.270E+02 -.113E+03 -.175E+04   -.274E+02 0.115E+03 0.175E+04   0.524E+00 -.138E+01 -.314E+00   -.134E-01 0.173E-01 0.448E-01
   -.139E+02 -.805E+01 -.184E+04   0.143E+02 0.827E+01 0.184E+04   -.319E+00 -.184E+00 0.216E+00   0.117E-01 0.673E-02 0.546E-01
 -----------------------------------------------------------------------------------------------
   -.256E+01 -.148E+01 0.286E+02   0.711E-13 0.675E-13 0.136E-11   0.254E+01 0.147E+01 -.286E+02   0.133E-01 0.767E-02 0.690E-01
 
 
 POSITION                                       TOTAL-FORCE (eV/Angst)
 -----------------------------------------------------------------------------------
      1.72589      0.99644     15.92920        -0.723290     -0.417592     -0.205042
      1.38593      0.80017     10.00000         0.003535      0.002041     -0.561213
      4.15779      0.80017     10.00000         0.014542     -0.069140     -0.711577
      2.77186      3.20067     10.00000        -0.052605      0.047164     -0.711577
      5.54372      3.20067     10.00000         0.099113      0.057223     -0.618606
      5.54372      1.60033     12.26321        -0.108716      0.082838     -0.227130
      2.77186      1.60033     12.26321         0.079470      0.045882     -0.382568
      6.92965      4.00083     12.26321        -0.095514     -0.055145      1.168542
      4.15779      4.00083     12.26321         0.017382     -0.135569     -0.227130
      0.00000      0.00000     14.52643        -0.319460     -0.184440      0.732109
      2.77186      0.00000     14.52643         0.881060     -0.364796      0.744487
      1.38593      2.40050     14.52643         0.124608      0.945419      0.744487
      4.15779      2.40050     14.52643         0.079874      0.046115      0.255217
 -----------------------------------------------------------------------------------
    total drift:                               -0.004348     -0.002510      0.055296


--------------------------------------------------------------------------------------------------------



  FREE ENERGIE OF THE ION-ELECTRON SYSTEM (eV)
  ---------------------------------------------------
  free  energy   TOTEN  =       -73.363740 eV

  energy  without entropy=      -73.338969  energy(sigma->0) =      -73.355483
 
 d Force = 0.1004282E-02[-0.974E-04, 0.211E-02]  d Energy = 0.1158376E-02-0.154E-03
 d Force = 0.1890366E+02[ 0.189E+02, 0.189E+02]  d Ewald  = 0.1890369E+02-0.307E-04


--------------------------------------------------------------------------------------------------------


    POTLOK:  cpu time    1.18: real time    1.18


--------------------------------------------------------------------------------------------------------


  energy of chain is (eV)         0.000000 for this image         0.000000
  tangential force (eV/A)        -0.853996
  left and right image   0.409850  0.408743 A
 TANGENT                                        CHAIN-FORCE (eV/Angst)
 -----------------------------------------------------------------------------------
      0.84770      0.48942      0.20464         0.723930      0.417961      0.174765
      0.00000      0.00000      0.00000         0.000000      0.000000      0.000000
      0.00000      0.00000      0.00000         0.000000      0.000000      0.000000
      0.00000      0.00000      0.00000         0.000000      0.000000      0.000000
      0.00000      0.00000      0.00000         0.000000      0.000000      0.000000
      0.00000      0.00000      0.00000         0.000000      0.000000      0.000000
      0.00000      0.00000      0.00000         0.000000      0.000000      0.000000
      0.00000      0.00000      0.00000         0.000000      0.000000      0.000000
      0.00000      0.00000      0.00000         0.000000      0.000000      0.000000
      0.00000      0.00000      0.00000         0.000000      0.000000      0.000000
      0.00000      0.00000      0.00000         0.000000      0.000000      0.000000
      0.00000      0.00000      0.00000         0.000000      0.000000      0.000000
      0.00000      0.00000      0.00000         0.000000      0.000000      0.000000
 -----------------------------------------------------------------------------------
 CHAIN + TOTAL  (eV/Angst)
 ----------------------------------------------
      0.00064      0.00037     -0.03028
      0.00000      0.00000      0.00000
      0.00000      0.00000      0.00000
      0.00000      0.00000      0.00000
      0.00000      0.00000      0.00000
      0.00000      0.00000      0.00000
      0.00000      0.00000      0.00000
      0.00000      0.00000      0.00000
      0.00000      0.00000      0.00000
      0.00000      0.00000      0.00000
      0.00000      0.00000      0.00000
      0.00000      0.00000      0.00000
      0.00000      0.00000      0.00000
 ----------------------------------------------
 Quasi-Newton relaxation of ions (Broydens 2nd method)
  g(Force)  = 0.650E-04   g(Stress)= 0.000E+00

 retain information from N=  1 steps
 eigenvalues of (default step * inverse Hessian matrix)
  average eigenvalue of G=   1.3146
 eigenvalue spectrum of G is  1.3146


--------------------------------------------------------------------------------------------------------


  
 reached required accuracy - stopping structural energy minimisation
 writing wavefunctions
     LOOP+:  cpu time  746.96: real time  750.09
    4ORBIT:  cpu time    0.00: real time    0.00

 total amount of memory used by VASP on root node   306212. kBytes
========================================================================

   base      :      30000. kBytes
   nonl-proj :      41318. kBytes
   fftplans  :      24100. kBytes
   grid      :      43113. kBytes
   one-center:        202. kBytes
   wavefun   :     167479. kBytes
 
  
  
 General timing and accounting informations for this job:
 ========================================================
  
                  Total CPU time used (sec):     3066.895
                            User time (sec):     3065.475
                          System time (sec):        1.420
                         Elapsed time (sec):     3072.972
  
                   Maximum memory used (kb):           0.
                   Average memory used (kb):           0.
  
                          Minor page faults:       429956
                          Major page faults:            0
                 Voluntary context switches:        14948
