   13   13   90    1
  0.5021387E+02  0.5543717E-09  0.5543717E-09  0.2452643E-08  0.5000000E-15
  1.000000000000000E-004
  CAR 
 unknown system                          
  126   14   75
 
  0.1250000E+00  0.1250000E+00  0.0000000E+00  0.4166667E-01
   1      -20.875859
   2      -11.183967
   3       -9.507774
   4       -9.018479
   5       -8.787029
   6       -8.716837
   7       -8.677096
   8       -8.650062
   9       -8.539764
  10       -8.519534
  11       -8.107452
  12       -8.049798
  13       -7.989421
  14       -7.921396
  15       -7.802313
  16       -7.772340
  17       -7.360599
  18       -6.921791
  19       -6.594275
  20       -6.265316
  21       -6.067329
  22       -5.987608
  23       -5.883253
  24       -5.797628
  25       -5.754969
  26       -5.689456
  27       -5.541968
  28       -5.420617
  29       -5.348301
  30       -5.243012
  31       -5.228913
  32       -5.156578
  33       -5.048716
  34       -5.008093
  35       -5.002229
  36       -4.810198
  37       -4.583989
  38       -4.475645
  39       -4.443750
  40       -3.811092
  41       -3.686577
  42       -3.605432
  43       -3.537146
  44       -3.483115
  45       -3.316471
  46       -3.234422
  47       -3.075126
  48       -2.908688
  49       -2.806171
  50       -2.583178
  51       -2.487062
  52       -2.412470
  53       -2.407224
  54       -2.332336
  55       -2.307217
  56       -2.226873
  57       -2.132698
  58       -2.121090
  59       -2.033614
  60       -1.976245
  61       -1.945522
  62       -1.873858
  63       -1.794574
  64       -1.747420
  65       -1.638840
  66       -1.541386
  67       -1.433385
  68       -1.220926
  69       -0.511782
  70       -0.385636
  71       -0.355539
  72        0.054896
  73        0.495913
  74        1.110328
  75        1.700700
 
  0.0000000E+00  0.1250000E+00  0.0000000E+00  0.8333333E-01
   1      -20.874373
   2      -11.185841
   3       -9.503296
   4       -9.015412
   5       -8.815623
   6       -8.751614
   7       -8.661754
   8       -8.594682
   9       -8.557944
  10       -8.511862
  11       -8.119509
  12       -8.060267
  13       -7.963170
  14       -7.918266
  15       -7.828433
  16       -7.766931
  17       -7.373106
  18       -6.899841
  19       -6.609147
  20       -6.267583
  21       -6.028558
  22       -5.979846
  23       -5.892029
  24       -5.796853
  25       -5.739177
  26       -5.669315
  27       -5.563588
  28       -5.505648
  29       -5.335271
  30       -5.252296
  31       -5.175498
  32       -5.139460
  33       -5.117716
  34       -5.050994
  35       -4.966500
  36       -4.759631
  37       -4.598056
  38       -4.534702
  39       -4.395042
  40       -3.793182
  41       -3.672121
  42       -3.597912
  43       -3.540974
  44       -3.498588
  45       -3.340036
  46       -3.240293
  47       -3.046519
  48       -2.909176
  49       -2.857481
  50       -2.553638
  51       -2.483426
  52       -2.419652
  53       -2.393219
  54       -2.317195
  55       -2.268889
  56       -2.196156
  57       -2.142736
  58       -2.097075
  59       -2.044845
  60       -1.995734
  61       -1.936897
  62       -1.886430
  63       -1.827488
  64       -1.754049
  65       -1.724421
  66       -1.633929
  67       -1.507949
  68       -1.056998
  69       -0.536115
  70       -0.355902
  71       -0.239414
  72        0.111154
  73        0.551087
  74        1.027022
  75        1.739888
 
  0.3750000E+00  0.1250000E+00  0.0000000E+00  0.8333333E-01
   1      -20.864368
   2      -10.443346
   3       -8.954565
   4       -8.787639
   5       -8.455669
   6       -8.356247
   7       -8.298280
   8       -8.204902
   9       -8.075686
  10       -7.916832
  11       -7.802268
  12       -7.714350
  13       -7.631889
  14       -7.515474
  15       -7.399192
  16       -7.270174
  17       -7.051126
  18       -6.701333
  19       -6.635029
  20       -6.366036
  21       -6.336906
  22       -6.190360
  23       -6.104516
  24       -6.034932
  25       -5.804037
  26       -5.736126
  27       -5.674401
  28       -5.612817
  29       -5.424927
  30       -5.383339
  31       -5.320697
  32       -5.275421
  33       -5.151578
  34       -4.997819
  35       -4.934297
  36       -4.865238
  37       -4.767369
  38       -4.661308
  39       -4.448140
  40       -4.403171
  41       -4.261310
  42       -4.204854
  43       -4.180009
  44       -4.052673
  45       -3.997284
  46       -3.934556
  47       -3.748267
  48       -3.677000
  49       -3.559616
  50       -3.396173
  51       -3.271413
  52       -3.182534
  53       -3.150897
  54       -3.013884
  55       -2.855849
  56       -2.743716
  57       -2.578774
  58       -2.514619
  59       -2.424528
  60       -2.305131
  61       -2.244268
  62       -2.155182
  63       -2.087913
  64       -2.011010
  65       -1.962703
  66       -1.903112
  67       -1.664165
  68       -1.099114
  69       -0.911280
  70       -0.626113
  71       -0.093224
  72        1.180744
  73        1.360805
  74        1.514653
  75        2.067584
 
  0.2500000E+00  0.3750000E+00  0.0000000E+00  0.8333333E-01
   1      -20.867930
   2      -10.435365
   3       -8.943296
   4       -8.747100
   5       -8.506816
   6       -8.396594
   7       -8.293026
   8       -8.178477
   9       -8.092968
  10       -7.928141
  11       -7.772812
  12       -7.706622
  13       -7.674178
  14       -7.506644
  15       -7.346614
  16       -7.295534
  17       -6.999766
  18       -6.758705
  19       -6.590161
  20       -6.387128
  21       -6.315291
  22       -6.225640
  23       -6.123259
  24       -5.956560
  25       -5.823074
  26       -5.755882
  27       -5.657725
  28       -5.552336
  29       -5.497420
  30       -5.396962
  31       -5.310184
  32       -5.249779
  33       -5.133161
  34       -5.004857
  35       -4.934217
  36       -4.874498
  37       -4.781362
  38       -4.645097
  39       -4.440283
  40       -4.416977
  41       -4.274986
  42       -4.211482
  43       -4.181044
  44       -4.077725
  45       -3.968748
  46       -3.937789
  47       -3.802539
  48       -3.622407
  49       -3.511895
  50       -3.383197
  51       -3.285035
  52       -3.229658
  53       -3.160810
  54       -2.988122
  55       -2.820972
  56       -2.731313
  57       -2.554076
  58       -2.498479
  59       -2.425431
  60       -2.308653
  61       -2.253627
  62       -2.166211
  63       -2.065397
  64       -2.002660
  65       -1.956781
  66       -1.809468
  67       -1.673461
  68       -1.285865
  69       -1.036869
  70       -0.692393
  71       -0.003493
  72        1.050442
  73        1.267362
  74        1.647362
  75        2.150487
 
 -0.1250000E+00  0.2500000E+00  0.0000000E+00  0.8333333E-01
   1      -20.860790
   2      -10.452244
   3       -8.954521
   4       -8.772799
   5       -8.511489
   6       -8.381223
   7       -8.280033
   8       -8.148121
   9       -8.023381
  10       -7.933675
  11       -7.810682
  12       -7.699206
  13       -7.671979
  14       -7.520433
  15       -7.342971
  16       -7.273062
  17       -7.156896
  18       -6.655061
  19       -6.626194
  20       -6.389812
  21       -6.346418
  22       -6.206921
  23       -6.092685
  24       -6.018833
  25       -5.845453
  26       -5.782531
  27       -5.700370
  28       -5.563517
  29       -5.433830
  30       -5.378905
  31       -5.305663
  32       -5.259713
  33       -5.135781
  34       -4.984000
  35       -4.934912
  36       -4.869677
  37       -4.835425
  38       -4.631755
  39       -4.439612
  40       -4.375885
  41       -4.295307
  42       -4.256680
  43       -4.159034
  44       -4.138475
  45       -3.983481
  46       -3.881141
  47       -3.749287
  48       -3.652460
  49       -3.543026
  50       -3.346411
  51       -3.265974
  52       -3.237380
  53       -3.101203
  54       -2.970069
  55       -2.836191
  56       -2.753711
  57       -2.621315
  58       -2.538885
  59       -2.382952
  60       -2.318854
  61       -2.263589
  62       -2.170249
  63       -2.098660
  64       -2.026676
  65       -1.949292
  66       -1.788559
  67       -1.697063
  68       -1.194170
  69       -0.948855
  70       -0.571175
  71        0.052421
  72        1.138445
  73        1.362128
  74        1.596933
  75        2.278542
 
 -0.3750000E+00  0.1250000E+00  0.0000000E+00  0.8333333E-01
   1      -20.856538
   2       -9.847745
   3       -9.239511
   4       -8.502187
   5       -8.305224
   6       -8.156532
   7       -7.901646
   8       -7.819194
   9       -7.723341
  10       -7.674672
  11       -7.593094
  12       -7.481556
  13       -7.419491
  14       -7.241934
  15       -7.108037
  16       -7.001648
  17       -6.881009
  18       -6.770250
  19       -6.656642
  20       -6.622741
  21       -6.403852
  22       -6.360016
  23       -6.275376
  24       -6.241974
  25       -6.081213
  26       -6.019566
  27       -5.761665
  28       -5.681694
  29       -5.544677
  30       -5.399604
  31       -5.336253
  32       -5.259713
  33       -5.238377
  34       -5.178849
  35       -5.057141
  36       -4.988380
  37       -4.871278
  38       -4.819634
  39       -4.740783
  40       -4.681112
  41       -4.570812
  42       -4.518454
  43       -4.394545
  44       -4.175493
  45       -4.059998
  46       -3.971973
  47       -3.865631
  48       -3.842074
  49       -3.737955
  50       -3.635680
  51       -3.551182
  52       -3.465531
  53       -3.334591
  54       -3.183041
  55       -3.059847
  56       -3.045489
  57       -2.951643
  58       -2.705517
  59       -2.655853
  60       -2.601399
  61       -2.384339
  62       -2.263877
  63       -2.143854
  64       -2.077420
  65       -1.929806
  66       -1.906329
  67       -1.682472
  68       -1.112633
  69       -0.849759
  70       -0.267347
  71        0.201675
  72        0.628889
  73        1.398382
  74        2.184920
  75        2.501936
 
  0.5000000E+00 -0.3750000E+00  0.0000000E+00  0.8333333E-01
   1      -20.865143
   2       -9.806253
   3       -9.192914
   4       -8.574258
   5       -8.328326
   6       -8.159354
   7       -7.982627
   8       -7.851647
   9       -7.768977
  10       -7.649618
  11       -7.599055
  12       -7.440125
  13       -7.415995
  14       -7.203746
  15       -7.108431
  16       -6.984153
  17       -6.803893
  18       -6.718478
  19       -6.622873
  20       -6.552126
  21       -6.414949
  22       -6.342062
  23       -6.280255
  24       -6.198449
  25       -6.074545
  26       -5.979262
  27       -5.825078
  28       -5.676690
  29       -5.561854
  30       -5.414473
  31       -5.326164
  32       -5.300471
  33       -5.231417
  34       -5.204655
  35       -5.088092
  36       -5.000739
  37       -4.914217
  38       -4.779588
  39       -4.755551
  40       -4.698722
  41       -4.550834
  42       -4.462747
  43       -4.395565
  44       -4.152184
  45       -4.053282
  46       -3.999091
  47       -3.871662
  48       -3.823922
  49       -3.716503
  50       -3.618242
  51       -3.557514
  52       -3.476252
  53       -3.362013
  54       -3.226578
  55       -3.067772
  56       -3.012819
  57       -2.919105
  58       -2.715945
  59       -2.659536
  60       -2.567129
  61       -2.354863
  62       -2.245009
  63       -2.160497
  64       -2.059251
  65       -1.947259
  66       -1.793831
  67       -1.690176
  68       -1.454355
  69       -0.888436
  70       -0.279403
  71        0.012187
  72        0.655767
  73        1.432820
  74        2.080524
  75        2.517001
 
 -0.1250000E+00  0.5000000E+00  0.0000000E+00  0.8333333E-01
   1      -20.857993
   2       -9.837220
   3       -9.245527
   4       -8.510420
   5       -8.290229
   6       -8.126592
   7       -7.946943
   8       -7.850728
   9       -7.764909
  10       -7.631057
  11       -7.583434
  12       -7.495858
  13       -7.428326
  14       -7.235439
  15       -7.084265
  16       -6.993536
  17       -6.861764
  18       -6.735347
  19       -6.668185
  20       -6.604690
  21       -6.418043
  22       -6.363654
  23       -6.265609
  24       -6.248019
  25       -6.108865
  26       -5.978744
  27       -5.754239
  28       -5.683841
  29       -5.556705
  30       -5.434652
  31       -5.303518
  32       -5.275918
  33       -5.236912
  34       -5.186188
  35       -5.049122
  36       -4.999837
  37       -4.896611
  38       -4.795197
  39       -4.727726
  40       -4.663427
  41       -4.577865
  42       -4.510089
  43       -4.373877
  44       -4.180467
  45       -4.068320
  46       -3.969766
  47       -3.888747
  48       -3.802513
  49       -3.740351
  50       -3.636445
  51       -3.555665
  52       -3.513566
  53       -3.370303
  54       -3.233572
  55       -3.088706
  56       -2.972315
  57       -2.928642
  58       -2.710297
  59       -2.677647
  60       -2.580801
  61       -2.364158
  62       -2.262645
  63       -2.129965
  64       -2.074683
  65       -1.971898
  66       -1.918615
  67       -1.659109
  68       -1.073431
  69       -0.849672
  70       -0.320624
  71        0.169657
  72        0.655581
  73        1.401681
  74        2.061291
  75        2.559804
 
 -0.1250000E+00  0.1250000E+00  0.0000000E+00  0.4166667E-01
   1      -20.868227
   2      -10.929899
   3       -9.261516
   4       -8.796142
   5       -8.766293
   6       -8.680107
   7       -8.541220
   8       -8.417867
   9       -8.357488
  10       -8.284366
  11       -8.029025
  12       -7.942433
  13       -7.867941
  14       -7.760649
  15       -7.633522
  16       -7.574596
  17       -7.336746
  18       -6.799870
  19       -6.610033
  20       -6.296448
  21       -6.082870
  22       -6.012158
  23       -5.897056
  24       -5.833068
  25       -5.787025
  26       -5.724593
  27       -5.628637
  28       -5.440658
  29       -5.338139
  30       -5.291780
  31       -5.266722
  32       -5.207905
  33       -5.182969
  34       -5.018643
  35       -4.900740
  36       -4.812656
  37       -4.756061
  38       -4.681714
  39       -4.446647
  40       -3.998634
  41       -3.894792
  42       -3.849072
  43       -3.705890
  44       -3.641216
  45       -3.463747
  46       -3.427492
  47       -3.381496
  48       -3.293419
  49       -3.169956
  50       -3.060633
  51       -2.871331
  52       -2.722454
  53       -2.632966
  54       -2.550777
  55       -2.487642
  56       -2.476361
  57       -2.413975
  58       -2.343592
  59       -2.208567
  60       -2.176466
  61       -2.173469
  62       -1.997205
  63       -1.966121
  64       -1.916599
  65       -1.821276
  66       -1.590782
  67       -1.435763
  68       -1.224517
  69       -0.961589
  70       -0.748215
  71        0.024191
  72        0.674325
  73        0.954218
  74        1.642266
  75        1.857971
 
 -0.2500000E+00 -0.1250000E+00  0.0000000E+00  0.8333333E-01
   1      -20.871799
   2      -10.924354
   3       -9.276093
   4       -8.792117
   5       -8.734789
   6       -8.623462
   7       -8.571241
   8       -8.437217
   9       -8.413760
  10       -8.278188
  11       -7.995210
  12       -7.946651
  13       -7.870713
  14       -7.768728
  15       -7.655612
  16       -7.539369
  17       -7.296550
  18       -6.858706
  19       -6.583712
  20       -6.289426
  21       -6.090392
  22       -6.038860
  23       -5.961371
  24       -5.820774
  25       -5.767922
  26       -5.722236
  27       -5.543082
  28       -5.402862
  29       -5.339310
  30       -5.293194
  31       -5.269774
  32       -5.221473
  33       -5.173557
  34       -5.038006
  35       -4.896004
  36       -4.813521
  37       -4.772191
  38       -4.582742
  39       -4.528172
  40       -4.023811
  41       -3.937767
  42       -3.774130
  43       -3.724107
  44       -3.631709
  45       -3.454143
  46       -3.430689
  47       -3.349095
  48       -3.294589
  49       -3.169748
  50       -3.094285
  51       -2.928877
  52       -2.691978
  53       -2.608551
  54       -2.570567
  55       -2.525578
  56       -2.477243
  57       -2.357519
  58       -2.307061
  59       -2.209852
  60       -2.177143
  61       -2.153420
  62       -2.035900
  63       -1.960984
  64       -1.885639
  65       -1.826306
  66       -1.653136
  67       -1.377382
  68       -1.225326
  69       -1.066019
  70       -0.607732
  71       -0.153374
  72        0.467438
  73        0.999730
  74        1.672874
  75        1.862178
 
  0.3750000E+00  0.3750000E+00  0.0000000E+00  0.4166667E-01
   1      -20.867877
   2      -10.215078
   3       -9.067282
   4       -8.759324
   5       -8.356822
   6       -8.260002
   7       -8.162501
   8       -8.050527
   9       -7.927385
  10       -7.866069
  11       -7.756928
  12       -7.593010
  13       -7.566913
  14       -7.412293
  15       -7.240794
  16       -7.187968
  17       -6.793237
  18       -6.751712
  19       -6.563844
  20       -6.451340
  21       -6.376003
  22       -6.276391
  23       -6.121779
  24       -6.040050
  25       -5.946207
  26       -5.929197
  27       -5.754097
  28       -5.556979
  29       -5.429375
  30       -5.397526
  31       -5.299927
  32       -5.134393
  33       -5.119789
  34       -5.013840
  35       -4.869561
  36       -4.847775
  37       -4.772229
  38       -4.766934
  39       -4.576718
  40       -4.470945
  41       -4.462771
  42       -4.404312
  43       -4.374143
  44       -4.281475
  45       -4.006624
  46       -3.971840
  47       -3.952985
  48       -3.687867
  49       -3.622289
  50       -3.572964
  51       -3.345692
  52       -3.335006
  53       -3.248142
  54       -3.080683
  55       -3.039779
  56       -2.929082
  57       -2.879790
  58       -2.692405
  59       -2.662588
  60       -2.614921
  61       -2.260891
  62       -2.216108
  63       -2.163920
  64       -1.992466
  65       -1.834085
  66       -1.701614
  67       -1.524929
  68       -1.412464
  69       -0.591725
  70        0.063651
  71        0.214949
  72        0.595784
  73        1.165836
  74        1.380183
  75        2.136594
 
  0.0000000E+00  0.3750000E+00  0.0000000E+00  0.8333333E-01
   1      -20.859242
   2      -10.239129
   3       -9.130549
   4       -8.698071
   5       -8.362497
   6       -8.268744
   7       -8.137568
   8       -7.993092
   9       -7.889031
  10       -7.842691
  11       -7.778719
  12       -7.620952
  13       -7.540054
  14       -7.450543
  15       -7.274970
  16       -7.157981
  17       -6.980535
  18       -6.663311
  19       -6.573204
  20       -6.479549
  21       -6.378790
  22       -6.261608
  23       -6.145435
  24       -6.087108
  25       -5.984911
  26       -5.928085
  27       -5.722703
  28       -5.598717
  29       -5.448880
  30       -5.315716
  31       -5.264225
  32       -5.164561
  33       -5.068782
  34       -5.017966
  35       -4.921193
  36       -4.857050
  37       -4.779636
  38       -4.736940
  39       -4.579951
  40       -4.482942
  41       -4.440764
  42       -4.391067
  43       -4.338149
  44       -4.282083
  45       -4.111389
  46       -3.945255
  47       -3.840693
  48       -3.759364
  49       -3.694319
  50       -3.521502
  51       -3.400129
  52       -3.297658
  53       -3.260599
  54       -3.107920
  55       -3.001440
  56       -2.935890
  57       -2.862588
  58       -2.753942
  59       -2.675290
  60       -2.629114
  61       -2.320103
  62       -2.174211
  63       -2.119940
  64       -2.025721
  65       -1.872874
  66       -1.804657
  67       -1.601838
  68       -0.971938
  69       -0.377259
  70        0.092068
  71        0.228753
  72        0.717274
  73        1.092053
  74        1.423120
  75        1.986454
 
 -0.3750000E+00  0.3750000E+00  0.0000000E+00  0.4166667E-01
   1      -20.860559
   2       -9.343728
   3       -9.183462
   4       -8.719060
   5       -8.243554
   6       -7.992637
   7       -7.952488
   8       -7.641629
   9       -7.549947
  10       -7.437420
  11       -7.375608
  12       -7.300417
  13       -7.251773
  14       -7.102988
  15       -7.033934
  16       -6.932845
  17       -6.921646
  18       -6.761215
  19       -6.751314
  20       -6.695984
  21       -6.559300
  22       -6.403448
  23       -6.336934
  24       -6.300064
  25       -6.041050
  26       -5.979783
  27       -5.890048
  28       -5.820531
  29       -5.749011
  30       -5.709940
  31       -5.643723
  32       -5.565391
  33       -5.551670
  34       -5.378884
  35       -5.054675
  36       -4.954866
  37       -4.905540
  38       -4.868509
  39       -4.821165
  40       -4.768130
  41       -4.627039
  42       -4.557266
  43       -4.248539
  44       -4.110117
  45       -3.974018
  46       -3.904450
  47       -3.813827
  48       -3.702990
  49       -3.671443
  50       -3.614867
  51       -3.524372
  52       -3.358821
  53       -3.236672
  54       -3.111747
  55       -3.102738
  56       -2.946331
  57       -2.693348
  58       -2.662590
  59       -2.596653
  60       -2.507786
  61       -2.434754
  62       -2.346499
  63       -2.266451
  64       -2.227125
  65       -2.199979
  66       -2.111554
  67       -1.962126
  68       -1.796186
  69       -1.460497
  70       -0.626587
  71        0.153551
  72        0.773283
  73        1.248123
  74        2.542691
  75        3.261429
 
  0.2500000E+00 -0.3750000E+00  0.0000000E+00  0.8333333E-01
   1      -20.856970
   2       -9.395144
   3       -9.192667
   4       -8.683161
   5       -8.163399
   6       -8.037354
   7       -7.853664
   8       -7.637578
   9       -7.552210
  10       -7.454156
  11       -7.386452
  12       -7.349146
  13       -7.302033
  14       -7.100068
  15       -7.039441
  16       -6.957015
  17       -6.881296
  18       -6.766327
  19       -6.751371
  20       -6.721638
  21       -6.566892
  22       -6.499536
  23       -6.384018
  24       -6.233194
  25       -6.030974
  26       -5.959573
  27       -5.874913
  28       -5.801846
  29       -5.782467
  30       -5.697334
  31       -5.659582
  32       -5.597644
  33       -5.518881
  34       -5.378754
  35       -5.053093
  36       -4.924344
  37       -4.873238
  38       -4.846727
  39       -4.821711
  40       -4.760058
  41       -4.659168
  42       -4.555471
  43       -4.252200
  44       -4.153145
  45       -3.975037
  46       -3.896757
  47       -3.843838
  48       -3.710869
  49       -3.648817
  50       -3.617944
  51       -3.519652
  52       -3.335433
  53       -3.231804
  54       -3.133045
  55       -3.082214
  56       -2.978001
  57       -2.699005
  58       -2.675986
  59       -2.563658
  60       -2.516386
  61       -2.391205
  62       -2.363993
  63       -2.288806
  64       -2.237574
  65       -2.202609
  66       -2.116148
  67       -1.964211
  68       -1.759709
  69       -1.376629
  70       -0.664005
  71        0.383850
  72        0.580255
  73        1.320538
  74        2.552849
  75        3.267752
