       N       E                     dE             d eps       ncg     rms          rms(c)
DAV:   1    -0.737759715158E+02   -0.73776E+02   -0.11679E+01  2124   0.145E+01    0.309E+00
DAV:   2    -0.747531619855E+02   -0.97719E+00   -0.50860E+00  3640   0.195E+01    0.775E+00
DAV:   3    -0.735211970806E+02    0.12320E+01   -0.28744E+00  3856   0.174E+01    0.284E+00
DAV:   4    -0.734422490370E+02    0.78948E-01   -0.84044E-01  3565   0.604E+00    0.188E+00
DAV:   5    -0.733860863337E+02    0.56163E-01   -0.48103E-01  3185   0.516E+00    0.112E+00
DAV:   6    -0.733566368411E+02    0.29449E-01   -0.13664E-01  3325   0.297E+00    0.308E-01
DAV:   7    -0.733571939723E+02   -0.55713E-03   -0.25950E-02  2935   0.115E+00    0.326E-01
DAV:   8    -0.733553092299E+02    0.18847E-02   -0.55263E-03  2973   0.649E-01    0.134E-01
DAV:   9    -0.733549864460E+02    0.32278E-03   -0.16207E-03  2917   0.313E-01    0.103E-01
DAV:  10    -0.733545773830E+02    0.40906E-03   -0.12916E-03  2751   0.270E-01    0.703E-02
DAV:  11    -0.733544865330E+02    0.90850E-04   -0.53644E-04  1429   0.205E-01
   1 F= -.73354487E+02 E0= -.73346148E+02  d E =-.733545E+02
       N       E                     dE             d eps       ncg     rms          rms(c)
DAV:   1    -0.733561054321E+02   -0.15280E-02   -0.30657E+00  2100   0.709E+00    0.376E-01
DAV:   2    -0.733634244121E+02   -0.73190E-02   -0.76648E-02  2604   0.123E+00    0.299E-01
DAV:   3    -0.733684880053E+02   -0.50636E-02   -0.32258E-02  3504   0.152E+00    0.604E-01
DAV:   4    -0.733625573770E+02    0.59306E-02   -0.17163E-02  3480   0.103E+00    0.151E-01
DAV:   5    -0.733625812412E+02   -0.23864E-04   -0.68839E-04  1911   0.195E-01
   2 F= -.73362581E+02 E0= -.73354274E+02  d E =-.809471E-02
       N       E                     dE             d eps       ncg     rms          rms(c)
DAV:   1    -0.733621746532E+02    0.38272E-03   -0.71127E-01  2100   0.344E+00    0.198E-01
DAV:   2    -0.733646263480E+02   -0.24517E-02   -0.22260E-02  2782   0.830E-01    0.265E-01
DAV:   3    -0.733642692465E+02    0.35710E-03   -0.89953E-03  3296   0.804E-01    0.208E-01
DAV:   4    -0.733640130897E+02    0.25616E-03   -0.45162E-03  2432   0.555E-01    0.175E-01
DAV:   5    -0.733636426388E+02    0.37045E-03   -0.11369E-03  1511   0.296E-01    0.409E-02
DAV:   6    -0.733637396169E+02   -0.96978E-04   -0.15162E-04  1231   0.101E-01
   3 F= -.73363740E+02 E0= -.73355483E+02  d E =-.115838E-02
