   13   13   90    1
  0.5021387E+02  0.5543717E-09  0.5543717E-09  0.2452643E-08  0.5000000E-15
  1.000000000000000E-004
  CAR 
 unknown system                          
  126   14   75
 
  0.1250000E+00  0.1250000E+00  0.0000000E+00  0.4166667E-01
   1      -20.799980
   2      -11.177636
   3       -9.504679
   4       -9.004975
   5       -8.833102
   6       -8.734585
   7       -8.665830
   8       -8.622740
   9       -8.516151
  10       -8.411063
  11       -8.110634
  12       -8.002038
  13       -7.942214
  14       -7.867484
  15       -7.786697
  16       -7.768560
  17       -7.433807
  18       -6.831255
  19       -6.656394
  20       -6.298384
  21       -6.097355
  22       -5.915744
  23       -5.836531
  24       -5.798628
  25       -5.774870
  26       -5.721295
  27       -5.499537
  28       -5.410470
  29       -5.376553
  30       -5.270435
  31       -5.241828
  32       -5.143770
  33       -5.035887
  34       -5.020093
  35       -4.989379
  36       -4.723758
  37       -4.472245
  38       -4.433283
  39       -4.376743
  40       -3.820201
  41       -3.670846
  42       -3.557544
  43       -3.505340
  44       -3.481707
  45       -3.308543
  46       -3.289173
  47       -3.124243
  48       -2.861431
  49       -2.809322
  50       -2.595022
  51       -2.529993
  52       -2.415880
  53       -2.342938
  54       -2.341999
  55       -2.320004
  56       -2.219018
  57       -2.119677
  58       -2.059620
  59       -2.025736
  60       -2.002794
  61       -1.950417
  62       -1.843743
  63       -1.814390
  64       -1.732887
  65       -1.617795
  66       -1.596776
  67       -1.405612
  68       -1.291661
  69       -0.453140
  70       -0.448815
  71       -0.393932
  72        0.146757
  73        0.530676
  74        1.064121
  75        1.695655
 
  0.0000000E+00  0.1250000E+00  0.0000000E+00  0.8333333E-01
   1      -20.798541
   2      -11.179471
   3       -9.499811
   4       -9.002189
   5       -8.847202
   6       -8.776330
   7       -8.645288
   8       -8.588213
   9       -8.498574
  10       -8.432213
  11       -8.102300
  12       -8.021614
  13       -7.955761
  14       -7.866603
  15       -7.779641
  16       -7.762419
  17       -7.440442
  18       -6.802076
  19       -6.684269
  20       -6.293828
  21       -6.057811
  22       -5.921458
  23       -5.822290
  24       -5.793167
  25       -5.768243
  26       -5.712514
  27       -5.566638
  28       -5.481739
  29       -5.328796
  30       -5.241773
  31       -5.204593
  32       -5.165965
  33       -5.102524
  34       -5.049640
  35       -4.924677
  36       -4.735625
  37       -4.526563
  38       -4.448861
  39       -4.346773
  40       -3.714915
  41       -3.649790
  42       -3.561452
  43       -3.527909
  44       -3.474346
  45       -3.372027
  46       -3.278842
  47       -3.102166
  48       -2.909053
  49       -2.831288
  50       -2.573519
  51       -2.519190
  52       -2.427517
  53       -2.346216
  54       -2.325129
  55       -2.257917
  56       -2.234409
  57       -2.119210
  58       -2.075880
  59       -2.046562
  60       -2.001000
  61       -1.921311
  62       -1.882926
  63       -1.819198
  64       -1.741950
  65       -1.668570
  66       -1.609594
  67       -1.475818
  68       -1.166843
  69       -0.515246
  70       -0.417571
  71       -0.335667
  72        0.242183
  73        0.627622
  74        0.959168
  75        1.740804
 
  0.3750000E+00  0.1250000E+00  0.0000000E+00  0.8333333E-01
   1      -20.788938
   2      -10.435785
   3       -8.962823
   4       -8.775710
   5       -8.444981
   6       -8.349636
   7       -8.263845
   8       -8.165373
   9       -8.035935
  10       -7.887514
  11       -7.783848
  12       -7.724562
  13       -7.608754
  14       -7.470251
  15       -7.374013
  16       -7.296716
  17       -7.048327
  18       -6.775689
  19       -6.522453
  20       -6.341405
  21       -6.267024
  22       -6.180627
  23       -6.094041
  24       -5.955600
  25       -5.827971
  26       -5.755117
  27       -5.709918
  28       -5.653592
  29       -5.435954
  30       -5.390950
  31       -5.314823
  32       -5.218670
  33       -5.144024
  34       -4.962866
  35       -4.914983
  36       -4.894579
  37       -4.808510
  38       -4.660062
  39       -4.431981
  40       -4.392423
  41       -4.252523
  42       -4.204371
  43       -4.143288
  44       -4.064746
  45       -4.025162
  46       -3.913401
  47       -3.770799
  48       -3.676944
  49       -3.573355
  50       -3.387885
  51       -3.266376
  52       -3.159027
  53       -3.098556
  54       -2.939114
  55       -2.802541
  56       -2.761273
  57       -2.613828
  58       -2.489428
  59       -2.364465
  60       -2.314586
  61       -2.246719
  62       -2.129667
  63       -2.081625
  64       -2.030947
  65       -1.909977
  66       -1.852078
  67       -1.702644
  68       -1.096046
  69       -0.960482
  70       -0.668062
  71       -0.142227
  72        1.180727
  73        1.356690
  74        1.513279
  75        2.058948
 
  0.2500000E+00  0.3750000E+00  0.0000000E+00  0.8333333E-01
   1      -20.792384
   2      -10.428069
   3       -8.950318
   4       -8.736750
   5       -8.519096
   6       -8.383901
   7       -8.242863
   8       -8.106059
   9       -8.080101
  10       -7.890191
  11       -7.777297
  12       -7.692009
  13       -7.621755
  14       -7.498816
  15       -7.370459
  16       -7.302354
  17       -6.987584
  18       -6.808202
  19       -6.468027
  20       -6.356058
  21       -6.299159
  22       -6.230501
  23       -6.127017
  24       -5.898777
  25       -5.780916
  26       -5.744706
  27       -5.696749
  28       -5.627544
  29       -5.472727
  30       -5.390404
  31       -5.282285
  32       -5.203059
  33       -5.143535
  34       -4.968053
  35       -4.915167
  36       -4.889170
  37       -4.813497
  38       -4.646094
  39       -4.454422
  40       -4.414298
  41       -4.255182
  42       -4.228084
  43       -4.156613
  44       -4.064015
  45       -4.009294
  46       -3.901272
  47       -3.822699
  48       -3.624031
  49       -3.524293
  50       -3.428412
  51       -3.256383
  52       -3.203018
  53       -3.075191
  54       -2.937283
  55       -2.793990
  56       -2.732438
  57       -2.603672
  58       -2.480844
  59       -2.407572
  60       -2.280750
  61       -2.236018
  62       -2.093377
  63       -2.042747
  64       -1.991722
  65       -1.935042
  66       -1.871455
  67       -1.665486
  68       -1.333910
  69       -1.027953
  70       -0.705494
  71       -0.072981
  72        1.040528
  73        1.281900
  74        1.652796
  75        2.129428
 
 -0.1250000E+00  0.2500000E+00  0.0000000E+00  0.8333333E-01
   1      -20.785478
   2      -10.444754
   3       -8.956070
   4       -8.766277
   5       -8.521763
   6       -8.339689
   7       -8.261015
   8       -8.063920
   9       -8.023430
  10       -7.894729
  11       -7.801507
  12       -7.693279
  13       -7.652749
  14       -7.506639
  15       -7.298680
  16       -7.243047
  17       -7.198054
  18       -6.772307
  19       -6.515389
  20       -6.345735
  21       -6.299283
  22       -6.165683
  23       -6.100922
  24       -5.916886
  25       -5.825572
  26       -5.768266
  27       -5.715050
  28       -5.678018
  29       -5.457466
  30       -5.382569
  31       -5.281538
  32       -5.212445
  33       -5.118920
  34       -5.043777
  35       -4.952133
  36       -4.876315
  37       -4.839852
  38       -4.681139
  39       -4.405941
  40       -4.354522
  41       -4.283565
  42       -4.258748
  43       -4.163108
  44       -4.070938
  45       -3.965365
  46       -3.867491
  47       -3.732601
  48       -3.646749
  49       -3.557872
  50       -3.400831
  51       -3.281294
  52       -3.218270
  53       -3.051481
  54       -2.916396
  55       -2.794772
  56       -2.694341
  57       -2.639527
  58       -2.461740
  59       -2.419793
  60       -2.317132
  61       -2.226130
  62       -2.156125
  63       -2.077209
  64       -2.034609
  65       -1.920350
  66       -1.849869
  67       -1.652039
  68       -1.209500
  69       -0.996470
  70       -0.578961
  71       -0.027430
  72        1.138924
  73        1.362068
  74        1.595212
  75        2.230666
 
 -0.3750000E+00  0.1250000E+00  0.0000000E+00  0.8333333E-01
   1      -20.781394
   2       -9.838218
   3       -9.234570
   4       -8.470221
   5       -8.291318
   6       -8.126951
   7       -7.907407
   8       -7.794173
   9       -7.730905
  10       -7.636288
  11       -7.604460
  12       -7.412865
  13       -7.379786
  14       -7.228229
  15       -7.106232
  16       -7.042262
  17       -6.893656
  18       -6.756152
  19       -6.595084
  20       -6.508107
  21       -6.413531
  22       -6.349380
  23       -6.252632
  24       -6.173260
  25       -6.036605
  26       -5.980831
  27       -5.782091
  28       -5.711507
  29       -5.554694
  30       -5.410234
  31       -5.328166
  32       -5.270773
  33       -5.231936
  34       -5.185945
  35       -5.092373
  36       -5.031904
  37       -4.920698
  38       -4.786171
  39       -4.730858
  40       -4.662880
  41       -4.622753
  42       -4.535306
  43       -4.411560
  44       -4.267980
  45       -4.010141
  46       -3.991722
  47       -3.874961
  48       -3.786145
  49       -3.717712
  50       -3.635641
  51       -3.533049
  52       -3.418144
  53       -3.300748
  54       -3.137436
  55       -3.077370
  56       -2.991112
  57       -2.856785
  58       -2.696948
  59       -2.630386
  60       -2.493298
  61       -2.388917
  62       -2.259248
  63       -2.155235
  64       -2.087797
  65       -1.957460
  66       -1.876071
  67       -1.681434
  68       -1.162763
  69       -0.884999
  70       -0.289889
  71        0.149737
  72        0.627886
  73        1.401065
  74        2.175481
  75        2.484495
 
  0.5000000E+00 -0.3750000E+00  0.0000000E+00  0.8333333E-01
   1      -20.789713
   2       -9.797707
   3       -9.188170
   4       -8.554850
   5       -8.328730
   6       -8.122004
   7       -7.938959
   8       -7.854351
   9       -7.710607
  10       -7.650058
  11       -7.585113
  12       -7.469246
  13       -7.370781
  14       -7.213467
  15       -7.108064
  16       -6.989640
  17       -6.794511
  18       -6.705603
  19       -6.628672
  20       -6.459491
  21       -6.370247
  22       -6.297207
  23       -6.265080
  24       -6.135338
  25       -6.021627
  26       -5.939746
  27       -5.803880
  28       -5.667914
  29       -5.577992
  30       -5.472919
  31       -5.337891
  32       -5.297517
  33       -5.231522
  34       -5.208467
  35       -5.081479
  36       -5.013734
  37       -4.952514
  38       -4.786109
  39       -4.753988
  40       -4.679012
  41       -4.601747
  42       -4.512389
  43       -4.402126
  44       -4.212068
  45       -4.033467
  46       -3.961217
  47       -3.878449
  48       -3.812372
  49       -3.728188
  50       -3.632382
  51       -3.532272
  52       -3.438162
  53       -3.307861
  54       -3.187737
  55       -3.043587
  56       -3.007346
  57       -2.828624
  58       -2.701498
  59       -2.656855
  60       -2.499023
  61       -2.322944
  62       -2.292807
  63       -2.089867
  64       -2.001661
  65       -1.956914
  66       -1.846198
  67       -1.714701
  68       -1.517538
  69       -0.880561
  70       -0.303219
  71       -0.034220
  72        0.647120
  73        1.442218
  74        2.094531
  75        2.499030
 
 -0.1250000E+00  0.5000000E+00  0.0000000E+00  0.8333333E-01
   1      -20.782798
   2       -9.826787
   3       -9.243776
   4       -8.476251
   5       -8.250138
   6       -8.116977
   7       -7.979964
   8       -7.835121
   9       -7.694333
  10       -7.648194
  11       -7.572196
  12       -7.497856
  13       -7.365633
  14       -7.209203
  15       -7.093769
  16       -7.006422
  17       -6.853315
  18       -6.721347
  19       -6.648025
  20       -6.471289
  21       -6.390561
  22       -6.338288
  23       -6.235654
  24       -6.178753
  25       -6.095008
  26       -5.973016
  27       -5.795306
  28       -5.717205
  29       -5.549924
  30       -5.426921
  31       -5.339408
  32       -5.267305
  33       -5.220639
  34       -5.183504
  35       -5.090272
  36       -5.033997
  37       -4.889457
  38       -4.784440
  39       -4.733342
  40       -4.670843
  41       -4.592128
  42       -4.547259
  43       -4.354612
  44       -4.313627
  45       -4.055275
  46       -3.986899
  47       -3.858033
  48       -3.774330
  49       -3.729736
  50       -3.628409
  51       -3.541469
  52       -3.439589
  53       -3.340753
  54       -3.145789
  55       -3.066754
  56       -2.973256
  57       -2.874662
  58       -2.713828
  59       -2.646127
  60       -2.459160
  61       -2.383530
  62       -2.262218
  63       -2.132906
  64       -2.087080
  65       -1.966960
  66       -1.867350
  67       -1.693615
  68       -1.119518
  69       -0.892211
  70       -0.352192
  71        0.143381
  72        0.642732
  73        1.407001
  74        2.054230
  75        2.557874
 
 -0.1250000E+00  0.1250000E+00  0.0000000E+00  0.4166667E-01
   1      -20.792630
   2      -10.923204
   3       -9.256856
   4       -8.813350
   5       -8.770001
   6       -8.690364
   7       -8.498080
   8       -8.375709
   9       -8.310658
  10       -8.242643
  11       -7.965280
  12       -7.961956
  13       -7.865030
  14       -7.725049
  15       -7.601896
  16       -7.539120
  17       -7.389424
  18       -6.753222
  19       -6.652279
  20       -6.283489
  21       -6.026635
  22       -6.003828
  23       -5.868725
  24       -5.842998
  25       -5.752817
  26       -5.718111
  27       -5.676096
  28       -5.507559
  29       -5.352540
  30       -5.291020
  31       -5.261525
  32       -5.189223
  33       -5.109076
  34       -5.024975
  35       -4.966802
  36       -4.794887
  37       -4.735133
  38       -4.618725
  39       -4.425140
  40       -3.955056
  41       -3.836329
  42       -3.719597
  43       -3.676884
  44       -3.629170
  45       -3.552593
  46       -3.401716
  47       -3.376348
  48       -3.252416
  49       -3.183791
  50       -3.112702
  51       -2.979729
  52       -2.691104
  53       -2.628889
  54       -2.548386
  55       -2.487343
  56       -2.431988
  57       -2.400355
  58       -2.334493
  59       -2.211144
  60       -2.178041
  61       -2.143561
  62       -2.011379
  63       -1.938959
  64       -1.893925
  65       -1.769100
  66       -1.588905
  67       -1.376786
  68       -1.354750
  69       -0.952878
  70       -0.714372
  71       -0.047384
  72        0.614756
  73        1.001956
  74        1.638418
  75        1.873153
 
 -0.2500000E+00 -0.1250000E+00  0.0000000E+00  0.8333333E-01
   1      -20.796087
   2      -10.917735
   3       -9.273002
   4       -8.789441
   5       -8.757261
   6       -8.653342
   7       -8.505766
   8       -8.432960
   9       -8.359282
  10       -8.210607
  11       -7.983946
  12       -7.912059
  13       -7.835917
  14       -7.736418
  15       -7.635488
  16       -7.544611
  17       -7.345801
  18       -6.804318
  19       -6.604293
  20       -6.285529
  21       -6.101949
  22       -5.985635
  23       -5.961154
  24       -5.805582
  25       -5.747614
  26       -5.719436
  27       -5.572506
  28       -5.495376
  29       -5.314505
  30       -5.296676
  31       -5.260085
  32       -5.185043
  33       -5.111125
  34       -5.048993
  35       -4.930280
  36       -4.795352
  37       -4.691312
  38       -4.569264
  39       -4.460540
  40       -3.997814
  41       -3.889115
  42       -3.755429
  43       -3.684889
  44       -3.639294
  45       -3.521944
  46       -3.400467
  47       -3.319529
  48       -3.281982
  49       -3.197756
  50       -3.106066
  51       -2.957905
  52       -2.693368
  53       -2.605704
  54       -2.573804
  55       -2.523664
  56       -2.433446
  57       -2.399952
  58       -2.274584
  59       -2.214256
  60       -2.167919
  61       -2.095509
  62       -2.046259
  63       -1.966570
  64       -1.891927
  65       -1.795841
  66       -1.636884
  67       -1.376686
  68       -1.246042
  69       -1.031210
  70       -0.619049
  71       -0.218950
  72        0.454004
  73        1.029420
  74        1.662422
  75        1.871625
 
  0.3750000E+00  0.3750000E+00  0.0000000E+00  0.4166667E-01
   1      -20.792328
   2      -10.207827
   3       -9.075206
   4       -8.737365
   5       -8.336166
   6       -8.214110
   7       -8.172422
   8       -8.048013
   9       -7.876940
  10       -7.802342
  11       -7.745934
  12       -7.587360
  13       -7.535844
  14       -7.398289
  15       -7.311129
  16       -7.152743
  17       -6.797392
  18       -6.795907
  19       -6.526328
  20       -6.369536
  21       -6.339165
  22       -6.262593
  23       -6.163783
  24       -6.006263
  25       -5.867107
  26       -5.819434
  27       -5.720756
  28       -5.619227
  29       -5.458128
  30       -5.405558
  31       -5.324280
  32       -5.091044
  33       -5.085049
  34       -5.011998
  35       -4.933086
  36       -4.837341
  37       -4.804475
  38       -4.725131
  39       -4.638628
  40       -4.446482
  41       -4.442293
  42       -4.411231
  43       -4.378207
  44       -4.268406
  45       -4.062280
  46       -3.962309
  47       -3.945890
  48       -3.651064
  49       -3.613262
  50       -3.602836
  51       -3.370095
  52       -3.313657
  53       -3.220164
  54       -3.069869
  55       -2.957863
  56       -2.938562
  57       -2.856494
  58       -2.689958
  59       -2.652235
  60       -2.506844
  61       -2.287746
  62       -2.201658
  63       -2.012537
  64       -1.996491
  65       -1.900415
  66       -1.748658
  67       -1.525506
  68       -1.488539
  69       -0.597726
  70        0.083594
  71        0.220409
  72        0.587348
  73        1.115643
  74        1.378850
  75        2.128655
 
  0.0000000E+00  0.3750000E+00  0.0000000E+00  0.8333333E-01
   1      -20.783977
   2      -10.231147
   3       -9.134215
   4       -8.671222
   5       -8.306120
   6       -8.279813
   7       -8.124479
   8       -7.999893
   9       -7.859202
  10       -7.798211
  11       -7.755873
  12       -7.618317
  13       -7.509058
  14       -7.413614
  15       -7.258842
  16       -7.150154
  17       -7.015855
  18       -6.721875
  19       -6.506990
  20       -6.422688
  21       -6.289863
  22       -6.241093
  23       -6.143150
  24       -6.048551
  25       -5.963195
  26       -5.848266
  27       -5.739969
  28       -5.680661
  29       -5.435271
  30       -5.355685
  31       -5.331194
  32       -5.143505
  33       -5.073630
  34       -4.981007
  35       -4.901046
  36       -4.883006
  37       -4.815678
  38       -4.723395
  39       -4.582545
  40       -4.501917
  41       -4.430197
  42       -4.391148
  43       -4.357402
  44       -4.254526
  45       -4.096306
  46       -3.984723
  47       -3.810232
  48       -3.762618
  49       -3.672881
  50       -3.501334
  51       -3.406492
  52       -3.284174
  53       -3.217536
  54       -3.060708
  55       -2.980950
  56       -2.910496
  57       -2.865901
  58       -2.756597
  59       -2.658287
  60       -2.470954
  61       -2.345282
  62       -2.146989
  63       -2.096682
  64       -2.027474
  65       -1.951613
  66       -1.771696
  67       -1.590505
  68       -1.052738
  69       -0.414788
  70        0.119073
  71        0.216836
  72        0.692644
  73        1.065716
  74        1.423080
  75        1.996271
 
 -0.3750000E+00  0.3750000E+00  0.0000000E+00  0.4166667E-01
   1      -20.785298
   2       -9.319620
   3       -9.180260
   4       -8.721690
   5       -8.240092
   6       -7.948829
   7       -7.919734
   8       -7.652210
   9       -7.554276
  10       -7.431060
  11       -7.366265
  12       -7.308833
  13       -7.191184
  14       -7.119202
  15       -7.021703
  16       -6.851255
  17       -6.819354
  18       -6.778514
  19       -6.723419
  20       -6.630090
  21       -6.533500
  22       -6.358845
  23       -6.321615
  24       -6.189365
  25       -6.126272
  26       -6.035419
  27       -5.882390
  28       -5.834134
  29       -5.737030
  30       -5.670665
  31       -5.648337
  32       -5.580112
  33       -5.492115
  34       -5.426919
  35       -5.040514
  36       -5.014213
  37       -4.913104
  38       -4.862942
  39       -4.805570
  40       -4.771899
  41       -4.656592
  42       -4.544195
  43       -4.356821
  44       -4.175893
  45       -4.099221
  46       -3.999655
  47       -3.711878
  48       -3.669074
  49       -3.622368
  50       -3.522062
  51       -3.489058
  52       -3.337444
  53       -3.215946
  54       -3.087865
  55       -2.975657
  56       -2.825203
  57       -2.728739
  58       -2.647156
  59       -2.535890
  60       -2.483902
  61       -2.449079
  62       -2.339659
  63       -2.252559
  64       -2.241215
  65       -2.177244
  66       -2.127650
  67       -1.936256
  68       -1.765277
  69       -1.548122
  70       -0.739929
  71        0.137641
  72        0.766278
  73        1.251547
  74        2.544953
  75        3.280219
 
  0.2500000E+00 -0.3750000E+00  0.0000000E+00  0.8333333E-01
   1      -20.781826
   2       -9.371003
   3       -9.194998
   4       -8.668802
   5       -8.169913
   6       -7.961575
   7       -7.883404
   8       -7.652346
   9       -7.564049
  10       -7.445776
  11       -7.371074
  12       -7.323251
  13       -7.197061
  14       -7.086930
  15       -7.020869
  16       -6.909337
  17       -6.827852
  18       -6.763726
  19       -6.723458
  20       -6.668052
  21       -6.570688
  22       -6.448626
  23       -6.320679
  24       -6.204402
  25       -6.086377
  26       -5.964717
  27       -5.903556
  28       -5.818451
  29       -5.763221
  30       -5.694990
  31       -5.658153
  32       -5.582113
  33       -5.464314
  34       -5.420941
  35       -5.047015
  36       -4.977216
  37       -4.880216
  38       -4.862548
  39       -4.827624
  40       -4.742888
  41       -4.636943
  42       -4.588725
  43       -4.368796
  44       -4.174231
  45       -4.155468
  46       -3.937287
  47       -3.774886
  48       -3.661488
  49       -3.605368
  50       -3.545112
  51       -3.499548
  52       -3.304488
  53       -3.179202
  54       -3.084621
  55       -2.996118
  56       -2.843872
  57       -2.711218
  58       -2.660017
  59       -2.495918
  60       -2.468139
  61       -2.412443
  62       -2.382677
  63       -2.293269
  64       -2.246227
  65       -2.184527
  66       -2.114406
  67       -1.944475
  68       -1.737055
  69       -1.474214
  70       -0.765338
  71        0.355001
  72        0.575617
  73        1.323056
  74        2.557396
  75        3.308576
