       N       E                     dE             d eps       ncg     rms          rms(c)
DAV:   1    -0.733626488873E+02   -0.73363E+02   -0.65738E+00  2132   0.108E+01    0.229E+00
DAV:   2    -0.736582812415E+02   -0.29563E+00   -0.20685E+00  3560   0.125E+01    0.494E+00
DAV:   3    -0.732545259238E+02    0.40376E+00   -0.18103E+00  3832   0.118E+01    0.262E+00
DAV:   4    -0.731698242125E+02    0.84702E-01   -0.42776E-01  3706   0.456E+00    0.132E+00
DAV:   5    -0.731516896072E+02    0.18135E-01   -0.34516E-01  3220   0.391E+00    0.108E+00
DAV:   6    -0.731263740908E+02    0.25316E-01   -0.10768E-01  3325   0.244E+00    0.206E-01
DAV:   7    -0.731270925442E+02   -0.71845E-03   -0.14570E-02  2729   0.764E-01    0.223E-01
DAV:   8    -0.731261793681E+02    0.91318E-03   -0.31137E-03  2975   0.499E-01    0.103E-01
DAV:   9    -0.731260072970E+02    0.17207E-03   -0.70394E-04  1693   0.243E-01    0.804E-02
DAV:  10    -0.731257939753E+02    0.21332E-03   -0.89027E-04  2430   0.208E-01    0.514E-02
DAV:  11    -0.731257556711E+02    0.38304E-04   -0.32746E-04  1394   0.144E-01
   1 F= -.73125756E+02 E0= -.73113308E+02  d E =-.731258E+02
       N       E                     dE             d eps       ncg     rms          rms(c)
DAV:   1    -0.731269329989E+02   -0.11390E-02   -0.15593E+00  2100   0.506E+00    0.267E-01
DAV:   2    -0.731311658318E+02   -0.42328E-02   -0.39848E-02  2741   0.969E-01    0.296E-01
DAV:   3    -0.731321208156E+02   -0.95498E-03   -0.15512E-02  3440   0.110E+00    0.366E-01
DAV:   4    -0.731301114026E+02    0.20094E-02   -0.59175E-03  2832   0.651E-01    0.118E-01
DAV:   5    -0.731300702168E+02    0.41186E-04   -0.70177E-04  1580   0.243E-01
   2 F= -.73130070E+02 E0= -.73117470E+02  d E =-.431455E-02
       N       E                     dE             d eps       ncg     rms          rms(c)
DAV:   1    -0.731294352449E+02    0.67616E-03   -0.50052E-01  2100   0.288E+00    0.158E-01
DAV:   2    -0.731309123642E+02   -0.14771E-02   -0.13748E-02  2688   0.576E-01    0.194E-01
DAV:   3    -0.731309700646E+02   -0.57700E-04   -0.50177E-03  3016   0.585E-01    0.185E-01
DAV:   4    -0.731307736397E+02    0.19642E-03   -0.26750E-03  1976   0.465E-01    0.134E-01
DAV:   5    -0.731305188259E+02    0.25481E-03   -0.78675E-04  1487   0.278E-01    0.407E-02
DAV:   6    -0.731305864779E+02   -0.67652E-04   -0.14666E-04  1214   0.100E-01
   3 F= -.73130586E+02 E0= -.73117912E+02  d E =-.516261E-03
