   1   1   1   0
  0.1181995E+02  0.2485493E-09  0.2485493E-09  0.2485493E-09  0.5000000E-15
  1.000000000000000E-004
  CAR 
 unknown system                          
     44.29185868     -4.59790695  301      5.52693316      1.00000000
     -4.598  0.0000E+00  0.0000E+00  0.0000E+00  0.0000E+00
     -4.435  0.0000E+00  0.0000E+00  0.0000E+00  0.0000E+00
     -4.272  0.0000E+00  0.0000E+00  0.0000E+00  0.0000E+00
     -4.109 -0.4203E-33  0.0000E+00 -0.6849E-34  0.0000E+00
     -3.946 -0.2668E-27 -0.2112E-29 -0.4349E-28 -0.3441E-30
     -3.783 -0.4442E-22 -0.5800E-24 -0.7239E-23 -0.9452E-25
     -3.620 -0.1934E-17 -0.4171E-19 -0.3151E-18 -0.6797E-20
     -3.457 -0.2118E-13 -0.7584E-15 -0.3453E-14 -0.1236E-15
     -3.294 -0.6138E-10 -0.3654E-11 -0.1001E-10 -0.5957E-12
     -3.131 -0.4519E-07 -0.4501E-08 -0.7374E-08 -0.7341E-09
     -2.968 -0.8201E-05 -0.1386E-05 -0.1344E-05 -0.2267E-06
     -2.805 -0.3378E-03 -0.1011E-03 -0.5639E-04 -0.1671E-04
     -2.642 -0.2091E-02 -0.1430E-02 -0.3972E-03 -0.2498E-03
     -2.479  0.1106E-01  0.1839E-02  0.1405E-02  0.4985E-04
     -2.316  0.4447E-01  0.3513E-01  0.8652E-02  0.5775E-02
     -2.153  0.2003E-01  0.3555E-01  0.1192E-01  0.1157E-01
     -1.990 -0.3291E-02 -0.4383E-03  0.1138E-01  0.1150E-01
     -1.827  0.3182E-01  0.8655E-02  0.1657E-01  0.1291E-01
     -1.665  0.5634E-01  0.5666E-01  0.2575E-01  0.2214E-01
     -1.502  0.3034E-02  0.3145E-01  0.2624E-01  0.2727E-01
     -1.339  0.4300E-01 -0.7565E-02  0.3325E-01  0.2603E-01
     -1.176  0.1782E+00  0.8679E-01  0.6229E-01  0.4018E-01
     -1.013  0.8283E-01  0.1770E+00  0.7579E-01  0.6902E-01
     -0.850 -0.6967E-02  0.4153E-01  0.7465E-01  0.7579E-01
     -0.687 -0.6349E-02 -0.8319E-02  0.7362E-01  0.7443E-01
     -0.524 -0.7615E-02 -0.1779E-02  0.7238E-01  0.7414E-01
     -0.361  0.1054E+00 -0.7144E-02  0.8955E-01  0.7298E-01
     -0.198  0.2021E+00  0.9272E-02  0.1225E+00  0.7449E-01
     -0.035  0.1130E+00  0.1744E+00  0.1409E+00  0.1029E+00
      0.128  0.3745E+00  0.1746E+00  0.2019E+00  0.1314E+00
      0.291  0.5285E+00  0.1362E-01  0.2881E+00  0.1336E+00
      0.454  0.4154E+00  0.1177E+00  0.3558E+00  0.1528E+00
      0.617  0.6083E+00  0.1466E+00  0.4549E+00  0.1766E+00
      0.780  0.1285E+01  0.7339E-01  0.6643E+00  0.1886E+00
      0.943  0.1196E+01  0.1743E+00  0.8592E+00  0.2170E+00
      1.106  0.6435E+00  0.6877E-01  0.9640E+00  0.2282E+00
      1.269  0.6343E+00 -0.8402E-02  0.1067E+01  0.2268E+00
      1.432  0.1110E+01 -0.1172E-01  0.1248E+01  0.2249E+00
      1.595  0.1384E+01 -0.5770E-02  0.1474E+01  0.2240E+00
      1.758  0.1243E+01  0.2509E+00  0.1676E+01  0.2649E+00
      1.921  0.1357E+01  0.4614E+00  0.1897E+01  0.3401E+00
      2.084  0.1035E+01  0.1514E+00  0.2066E+01  0.3648E+00
      2.247  0.1018E+01  0.1517E+00  0.2232E+01  0.3895E+00
      2.410  0.1355E+01  0.5346E+00  0.2453E+01  0.4766E+00
      2.573  0.1454E+01  0.2771E+00  0.2690E+01  0.5218E+00
      2.736  0.7688E+00  0.4341E-01  0.2815E+01  0.5288E+00
      2.899  0.5242E-01  0.2390E-01  0.2824E+01  0.5327E+00
      3.061  0.4873E+00  0.4260E+00  0.2903E+01  0.6022E+00
      3.224  0.1051E+01  0.8334E+00  0.3074E+01  0.7380E+00
      3.387  0.1341E+01  0.3717E+00  0.3293E+01  0.7986E+00
      3.550  0.2108E+01  0.2658E+00  0.3636E+01  0.8419E+00
      3.713  0.2749E+01  0.4999E+00  0.4084E+01  0.9233E+00
      3.876  0.2249E+01  0.5267E+00  0.4451E+01  0.1009E+01
      4.039  0.1271E+01  0.3809E+00  0.4658E+01  0.1071E+01
      4.202  0.1044E+01  0.5668E+00  0.4828E+01  0.1164E+01
      4.365  0.6148E+00  0.9934E+00  0.4928E+01  0.1325E+01
      4.528  0.6697E+00  0.1062E+01  0.5038E+01  0.1499E+01
      4.691  0.7187E+00  0.1693E+01  0.5155E+01  0.1775E+01
      4.854  0.3900E+00  0.1301E+01  0.5218E+01  0.1987E+01
      5.017  0.7121E-01  0.9870E+00  0.5230E+01  0.2147E+01
      5.180  0.1158E+00  0.1272E+01  0.5249E+01  0.2355E+01
      5.343  0.1364E+00  0.1074E+01  0.5271E+01  0.2530E+01
      5.506  0.9947E-01  0.9702E+00  0.5287E+01  0.2688E+01
      5.669  0.2506E+00  0.9550E+00  0.5328E+01  0.2843E+01
      5.832  0.2947E+00  0.4781E+00  0.5376E+01  0.2921E+01
      5.995  0.2419E+00  0.4564E-01  0.5415E+01  0.2929E+01
      6.158  0.3423E+00 -0.3111E-01  0.5471E+01  0.2924E+01
      6.321  0.2347E+00  0.5336E-01  0.5509E+01  0.2932E+01
      6.484 -0.9719E-04  0.3926E+00  0.5509E+01  0.2996E+01
      6.647 -0.9415E-02  0.5137E+00  0.5508E+01  0.3080E+01
      6.810 -0.2880E-02  0.3776E+00  0.5507E+01  0.3142E+01
      6.973  0.7989E-03  0.5159E+00  0.5508E+01  0.3226E+01
      7.136  0.5914E-01  0.5162E+00  0.5517E+01  0.3310E+01
      7.299  0.1165E+00  0.8683E+00  0.5536E+01  0.3451E+01
      7.462  0.3711E-01  0.1433E+01  0.5542E+01  0.3685E+01
      7.625  0.2922E-01  0.1127E+01  0.5547E+01  0.3868E+01
      7.788  0.1993E+00  0.8729E+00  0.5579E+01  0.4011E+01
      7.950  0.2488E+00  0.1149E+01  0.5620E+01  0.4198E+01
      8.113  0.8123E-01  0.1826E+01  0.5633E+01  0.4495E+01
      8.276  0.1764E+00  0.2492E+01  0.5662E+01  0.4902E+01
      8.439  0.5828E+00  0.1678E+01  0.5757E+01  0.5175E+01
      8.602  0.2519E+00  0.7274E+00  0.5798E+01  0.5294E+01
      8.765 -0.2230E-01  0.4509E+00  0.5794E+01  0.5367E+01
      8.928 -0.8430E-02  0.3007E+00  0.5793E+01  0.5416E+01
      9.091 -0.2838E-02  0.3134E+00  0.5793E+01  0.5467E+01
      9.254 -0.7266E-02  0.2689E+00  0.5791E+01  0.5511E+01
      9.417  0.7809E-01  0.1007E+00  0.5804E+01  0.5527E+01
      9.580  0.1797E+00  0.7174E-01  0.5833E+01  0.5539E+01
      9.743  0.4962E-01  0.8804E-02  0.5841E+01  0.5541E+01
      9.906 -0.1092E-01  0.5226E-01  0.5840E+01  0.5549E+01
     10.069 -0.8832E-02  0.3305E+00  0.5838E+01  0.5603E+01
     10.232  0.7739E-01  0.3023E+00  0.5851E+01  0.5652E+01
     10.395  0.1772E+00  0.1890E+00  0.5880E+01  0.5683E+01
     10.558  0.4304E-01  0.3521E+00  0.5887E+01  0.5740E+01
     10.721  0.7077E-01  0.3138E+00  0.5898E+01  0.5792E+01
     10.884  0.1755E+00  0.2281E-01  0.5927E+01  0.5795E+01
     11.047  0.4937E-01 -0.1452E-01  0.5935E+01  0.5793E+01
     11.210  0.5426E-01 -0.9708E-02  0.5944E+01  0.5791E+01
     11.373  0.7676E-01  0.4367E-01  0.5956E+01  0.5798E+01
     11.536  0.6411E-02  0.1742E+00  0.5957E+01  0.5827E+01
     11.699 -0.8083E-02  0.1793E+00  0.5956E+01  0.5856E+01
     11.862  0.5235E-01  0.1655E+00  0.5965E+01  0.5883E+01
     12.025  0.1179E+00  0.2458E-01  0.5984E+01  0.5887E+01
     12.188  0.1361E+00  0.7201E-02  0.6006E+01  0.5888E+01
     12.351  0.2294E+00  0.1532E+00  0.6043E+01  0.5913E+01
     12.514  0.9938E-01  0.1237E+00  0.6060E+01  0.5933E+01
     12.676 -0.1279E-01  0.1866E-01  0.6057E+01  0.5936E+01
     12.839  0.1064E+00  0.8121E-01  0.6075E+01  0.5950E+01
     13.002  0.2880E+00  0.4938E-01  0.6122E+01  0.5958E+01
     13.165  0.3069E+00 -0.5851E-02  0.6172E+01  0.5957E+01
     13.328  0.9347E-01  0.1511E-02  0.6187E+01  0.5957E+01
     13.491 -0.1619E-01  0.8898E-01  0.6184E+01  0.5971E+01
     13.654  0.4386E+00  0.9801E-01  0.6256E+01  0.5987E+01
     13.817  0.7275E+00  0.3051E-01  0.6374E+01  0.5992E+01
     13.980  0.2203E+00  0.2555E-01  0.6410E+01  0.5997E+01
     14.143 -0.1878E-01  0.7702E-01  0.6407E+01  0.6009E+01
     14.306  0.1079E-01  0.2848E+00  0.6409E+01  0.6056E+01
     14.469  0.5794E-01  0.3134E+00  0.6418E+01  0.6107E+01
     14.632  0.1685E-01  0.2520E+00  0.6421E+01  0.6148E+01
     14.795  0.4315E-01  0.1404E+00  0.6428E+01  0.6171E+01
     14.958  0.1824E+00  0.1313E+00  0.6458E+01  0.6192E+01
     15.121  0.2022E+00  0.2011E+00  0.6491E+01  0.6225E+01
     15.284  0.2862E+00  0.5531E+00  0.6537E+01  0.6315E+01
     15.447  0.2135E+00  0.5240E+00  0.6572E+01  0.6400E+01
     15.610  0.1544E+00  0.1475E+00  0.6597E+01  0.6424E+01
     15.773  0.4369E+00  0.6473E-01  0.6669E+01  0.6435E+01
     15.936  0.1873E+00  0.5597E-01  0.6699E+01  0.6444E+01
     16.099  0.4747E-01  0.2463E+00  0.6707E+01  0.6484E+01
     16.262  0.1433E+00  0.2019E+00  0.6730E+01  0.6517E+01
     16.425  0.1856E+00  0.1702E+00  0.6760E+01  0.6545E+01
     16.588  0.2452E+00  0.6255E-01  0.6800E+01  0.6555E+01
     16.751  0.2466E+00  0.8304E-01  0.6841E+01  0.6568E+01
     16.914  0.2348E-01  0.1579E+00  0.6844E+01  0.6594E+01
     17.077 -0.2085E-03  0.2221E+00  0.6844E+01  0.6630E+01
     17.240  0.1632E+00  0.4331E+00  0.6871E+01  0.6701E+01
     17.402  0.2369E+00  0.3206E+00  0.6910E+01  0.6753E+01
     17.565  0.4302E+00  0.8073E-01  0.6980E+01  0.6766E+01
     17.728  0.4716E+00  0.1175E-01  0.7057E+01  0.6768E+01
     17.891  0.2015E+00  0.2091E+00  0.7089E+01  0.6802E+01
     18.054  0.1039E+00  0.3115E+00  0.7106E+01  0.6853E+01
     18.217  0.1727E+00  0.2935E+00  0.7135E+01  0.6901E+01
     18.380  0.1655E+00  0.3319E+00  0.7161E+01  0.6955E+01
     18.543  0.3253E-01  0.3211E+00  0.7167E+01  0.7007E+01
     18.706  0.1400E+00  0.2799E+00  0.7190E+01  0.7053E+01
     18.869  0.1615E+00  0.5250E-01  0.7216E+01  0.7062E+01
     19.032  0.2356E+00  0.8167E-01  0.7254E+01  0.7075E+01
     19.195  0.2916E+00  0.1748E+00  0.7302E+01  0.7103E+01
     19.358  0.1338E+00  0.1468E+00  0.7324E+01  0.7127E+01
     19.521  0.1002E+00  0.1680E+00  0.7340E+01  0.7155E+01
     19.684  0.3482E+00  0.4938E-01  0.7397E+01  0.7163E+01
     19.847  0.1720E+00  0.1674E+00  0.7425E+01  0.7190E+01
     20.010 -0.1251E-01  0.4407E+00  0.7423E+01  0.7262E+01
     20.173  0.2263E-01  0.3333E+00  0.7426E+01  0.7316E+01
     20.336  0.2750E-01  0.6764E-01  0.7431E+01  0.7327E+01
     20.499  0.7058E-01  0.1216E+00  0.7442E+01  0.7347E+01
     20.662  0.3142E+00  0.3589E+00  0.7494E+01  0.7405E+01
     20.825  0.3997E+00  0.1210E+00  0.7559E+01  0.7425E+01
     20.988  0.1095E+00 -0.1782E-01  0.7577E+01  0.7422E+01
     21.151  0.1619E-01 -0.1210E-01  0.7579E+01  0.7420E+01
     21.314  0.1490E+00  0.4170E-01  0.7603E+01  0.7427E+01
     21.477  0.2347E+00  0.1694E+00  0.7642E+01  0.7455E+01
     21.640  0.2466E+00  0.9771E-01  0.7682E+01  0.7471E+01
     21.803  0.5346E+00  0.1751E+00  0.7769E+01  0.7499E+01
     21.966  0.3823E+00  0.3155E+00  0.7831E+01  0.7551E+01
     22.128  0.2266E+00  0.2447E+00  0.7868E+01  0.7590E+01
     22.291  0.2437E+00  0.8811E-01  0.7908E+01  0.7605E+01
     22.454  0.1908E+00  0.2148E+00  0.7939E+01  0.7640E+01
     22.617  0.1394E+00  0.4390E+00  0.7962E+01  0.7711E+01
     22.780  0.5303E-01  0.4099E+00  0.7970E+01  0.7778E+01
     22.943  0.2287E+00  0.2858E+00  0.8008E+01  0.7825E+01
     23.106  0.2943E+00  0.3495E+00  0.8056E+01  0.7882E+01
     23.269  0.1822E+00  0.2593E+00  0.8085E+01  0.7924E+01
     23.432  0.2341E+00  0.2012E+00  0.8123E+01  0.7957E+01
     23.595  0.4061E+00  0.2133E+00  0.8190E+01  0.7992E+01
     23.758  0.3354E+00  0.2722E+00  0.8244E+01  0.8036E+01
     23.921  0.3609E+00  0.2446E+00  0.8303E+01  0.8076E+01
     24.084  0.2672E+00  0.8201E-01  0.8347E+01  0.8089E+01
     24.247  0.1549E+00  0.2131E+00  0.8372E+01  0.8124E+01
     24.410  0.1877E+00  0.4065E+00  0.8403E+01  0.8190E+01
     24.573  0.3944E+00  0.4317E+00  0.8467E+01  0.8260E+01
     24.736  0.4392E+00  0.2620E+00  0.8538E+01  0.8303E+01
     24.899  0.2334E+00  0.2808E+00  0.8576E+01  0.8349E+01
     25.062  0.4439E-01  0.3444E+00  0.8584E+01  0.8405E+01
     25.225 -0.2335E-01  0.8585E-01  0.8580E+01  0.8419E+01
     25.388  0.6967E-01 -0.6924E-03  0.8591E+01  0.8419E+01
     25.551  0.3130E+00  0.2600E+00  0.8642E+01  0.8461E+01
     25.714  0.2043E+00  0.5649E+00  0.8675E+01  0.8553E+01
     25.877 -0.9992E-02  0.4084E+00  0.8674E+01  0.8620E+01
     26.040  0.1231E+00  0.7354E-01  0.8694E+01  0.8632E+01
     26.203  0.5393E+00 -0.1784E-01  0.8782E+01  0.8629E+01
     26.366  0.6185E+00 -0.2724E-01  0.8883E+01  0.8625E+01
     26.529  0.2797E+00  0.7606E-01  0.8928E+01  0.8637E+01
     26.692  0.1509E+00  0.5504E+00  0.8953E+01  0.8727E+01
     26.855  0.3930E-01  0.5018E+00  0.8959E+01  0.8808E+01
     27.017  0.7424E-01  0.2405E+00  0.8971E+01  0.8848E+01
     27.180  0.2598E+00  0.3757E+00  0.9014E+01  0.8909E+01
     27.343  0.2374E+00  0.3645E+00  0.9052E+01  0.8968E+01
     27.506  0.5516E-01  0.1812E+00  0.9061E+01  0.8998E+01
     27.669  0.2285E+00  0.4511E-01  0.9099E+01  0.9005E+01
     27.832  0.2941E+00  0.8379E-01  0.9146E+01  0.9019E+01
     27.995  0.9316E-01  0.1810E+00  0.9162E+01  0.9048E+01
     28.158  0.1482E+00  0.7534E-01  0.9186E+01  0.9061E+01
     28.321  0.2079E+00  0.2729E-01  0.9220E+01  0.9065E+01
     28.484  0.9452E-01  0.1411E+00  0.9235E+01  0.9088E+01
     28.647  0.1603E+00  0.3027E+00  0.9261E+01  0.9137E+01
     28.810  0.5665E-01  0.2301E+00  0.9270E+01  0.9175E+01
     28.973  0.2630E+00  0.1770E+00  0.9313E+01  0.9204E+01
     29.136  0.5840E+00  0.1791E+00  0.9408E+01  0.9233E+01
     29.299  0.2776E+00  0.2110E+00  0.9454E+01  0.9267E+01
     29.462  0.1191E+00  0.9579E-01  0.9473E+01  0.9283E+01
     29.625  0.3936E+00  0.7166E-01  0.9537E+01  0.9295E+01
     29.788  0.4407E+00 -0.1841E-02  0.9609E+01  0.9294E+01
     29.951  0.2685E+00  0.1211E+00  0.9653E+01  0.9314E+01
     30.114  0.1153E+00  0.3490E+00  0.9672E+01  0.9371E+01
     30.277  0.2060E+00  0.3597E+00  0.9705E+01  0.9429E+01
     30.440  0.2462E+00  0.5941E+00  0.9745E+01  0.9526E+01
     30.603  0.8471E-01  0.3769E+00  0.9759E+01  0.9588E+01
     30.766 -0.1782E-01  0.7358E-01  0.9756E+01  0.9600E+01
     30.929  0.9120E-01  0.3259E+00  0.9771E+01  0.9653E+01
     31.092  0.2470E+00  0.4884E+00  0.9811E+01  0.9732E+01
     31.255  0.2096E+00  0.2370E+00  0.9845E+01  0.9771E+01
     31.418  0.1115E+00  0.2243E-01  0.9864E+01  0.9775E+01
     31.581  0.4427E-01  0.1108E+00  0.9871E+01  0.9793E+01
     31.743  0.4752E+00  0.1573E+00  0.9948E+01  0.9818E+01
     31.906  0.7615E+00  0.1080E-01  0.1007E+02  0.9820E+01
     32.069  0.4288E+00  0.1665E-01  0.1014E+02  0.9823E+01
     32.232  0.5147E-01  0.1553E+00  0.1015E+02  0.9848E+01
     32.395 -0.2447E-02  0.2633E+00  0.1015E+02  0.9891E+01
     32.558  0.2091E+00  0.3361E+00  0.1018E+02  0.9946E+01
     32.721  0.3520E+00  0.1542E+00  0.1024E+02  0.9971E+01
     32.884  0.1630E+00  0.3947E+00  0.1027E+02  0.1004E+02
     33.047  0.2658E+00  0.5334E+00  0.1031E+02  0.1012E+02
     33.210  0.3858E+00  0.2389E+00  0.1037E+02  0.1016E+02
     33.373  0.1517E+00  0.2046E+00  0.1040E+02  0.1019E+02
     33.536  0.1319E+00  0.5974E+00  0.1042E+02  0.1029E+02
     33.699  0.3231E+00  0.5842E+00  0.1047E+02  0.1039E+02
     33.862  0.4951E+00  0.7261E-01  0.1055E+02  0.1040E+02
     34.025  0.2804E+00 -0.3387E-01  0.1060E+02  0.1039E+02
     34.188  0.6007E-01  0.5381E-01  0.1061E+02  0.1040E+02
     34.351  0.2046E-01  0.1728E+00  0.1061E+02  0.1043E+02
     34.514  0.4491E-01  0.1300E+00  0.1062E+02  0.1045E+02
     34.677  0.3093E+00  0.1649E+00  0.1067E+02  0.1048E+02
     34.840  0.2888E+00  0.1124E+00  0.1072E+02  0.1050E+02
     35.003  0.4054E-01  0.1608E+00  0.1072E+02  0.1052E+02
     35.166 -0.1042E-01  0.1193E+00  0.1072E+02  0.1054E+02
     35.329 -0.3098E-02  0.2405E+00  0.1072E+02  0.1058E+02
     35.492  0.7352E-01  0.1608E+00  0.1073E+02  0.1061E+02
     35.655  0.1593E+00  0.5740E-01  0.1076E+02  0.1062E+02
     35.818  0.6006E-01  0.2173E+00  0.1077E+02  0.1065E+02
     35.981 -0.3137E-02  0.4129E+00  0.1077E+02  0.1072E+02
     36.144  0.1503E+00  0.2694E+00  0.1079E+02  0.1076E+02
     36.307  0.1967E+00  0.5726E-01  0.1083E+02  0.1077E+02
     36.469  0.2382E-01  0.4010E-01  0.1083E+02  0.1078E+02
     36.632 -0.8660E-02  0.1160E-01  0.1083E+02  0.1078E+02
     36.795 -0.8817E-03 -0.1058E-01  0.1083E+02  0.1078E+02
     36.958 -0.1780E-02  0.5594E-01  0.1083E+02  0.1079E+02
     37.121 -0.1540E-01  0.1784E+00  0.1083E+02  0.1082E+02
     37.284  0.5498E-01  0.9367E-01  0.1083E+02  0.1083E+02
     37.447  0.3358E+00  0.4961E-01  0.1089E+02  0.1084E+02
     37.610  0.2129E+00 -0.5680E-03  0.1092E+02  0.1084E+02
     37.773  0.2325E-01  0.8788E-01  0.1093E+02  0.1086E+02
     37.936  0.5129E-01  0.3563E+00  0.1094E+02  0.1091E+02
     38.099  0.1326E-01  0.1663E+00  0.1094E+02  0.1094E+02
     38.262 -0.4956E-02 -0.1623E-01  0.1094E+02  0.1094E+02
     38.425 -0.7776E-03 -0.3085E-02  0.1094E+02  0.1094E+02
     38.588  0.5882E-01  0.6705E-01  0.1095E+02  0.1095E+02
     38.751  0.8107E-01  0.7454E-01  0.1096E+02  0.1096E+02
     38.914  0.1056E-01  0.5881E-02  0.1096E+02  0.1096E+02
     39.077 -0.3615E-02 -0.3145E-02  0.1096E+02  0.1096E+02
     39.240 -0.3630E-03 -0.2509E-03  0.1096E+02  0.1096E+02
     39.403 -0.1623E-03 -0.3774E-05  0.1096E+02  0.1096E+02
     39.566 -0.2035E-02 -0.1337E-07  0.1096E+02  0.1096E+02
     39.729  0.3413E-02 -0.2518E-08  0.1096E+02  0.1096E+02
     39.892  0.4879E-01 -0.9311E-06  0.1097E+02  0.1096E+02
     40.055  0.4584E-01 -0.8286E-04  0.1098E+02  0.1096E+02
     40.218  0.2003E-02 -0.1502E-02  0.1098E+02  0.1096E+02
     40.381 -0.1843E-02 -0.5968E-05  0.1098E+02  0.1096E+02
     40.544 -0.1252E-03  0.4007E-01  0.1098E+02  0.1097E+02
     40.707 -0.1663E-05  0.5346E-01  0.1098E+02  0.1098E+02
     40.870 -0.5242E-08  0.6536E-02  0.1098E+02  0.1098E+02
     41.033 -0.1083E-10 -0.2367E-02  0.1098E+02  0.1098E+02
     41.196 -0.8377E-08 -0.2282E-03  0.1098E+02  0.1098E+02
     41.358 -0.2621E-05 -0.4378E-05  0.1098E+02  0.1098E+02
     41.521 -0.1944E-03 -0.5272E-04  0.1098E+02  0.1098E+02
     41.684 -0.2809E-02 -0.1397E-02  0.1098E+02  0.1098E+02
     41.847  0.3315E-02 -0.3318E-02  0.1098E+02  0.1098E+02
     42.010  0.6947E-01  0.4231E-01  0.1099E+02  0.1098E+02
     42.173  0.7251E-01  0.8903E-01  0.1100E+02  0.1100E+02
     42.336  0.4765E-02  0.2212E-01  0.1100E+02  0.1100E+02
     42.499 -0.3007E-02 -0.4183E-02  0.1100E+02  0.1100E+02
     42.662 -0.2260E-03 -0.6755E-03  0.1100E+02  0.1100E+02
     42.825 -0.3249E-05 -0.1640E-04  0.1100E+02  0.1100E+02
     42.988 -0.1103E-07 -0.9038E-07  0.1100E+02  0.1100E+02
     43.151 -0.9354E-11 -0.1228E-09  0.1100E+02  0.1100E+02
     43.314 -0.2012E-14 -0.4238E-13  0.1100E+02  0.1100E+02
     43.477  0.0000E+00  0.0000E+00  0.1100E+02  0.1100E+02
     43.640  0.0000E+00  0.0000E+00  0.1100E+02  0.1100E+02
     43.803  0.0000E+00  0.0000E+00  0.1100E+02  0.1100E+02
     43.966  0.0000E+00  0.0000E+00  0.1100E+02  0.1100E+02
     44.129  0.0000E+00  0.0000E+00  0.1100E+02  0.1100E+02
     44.292  0.0000E+00  0.0000E+00  0.1100E+02  0.1100E+02
     44.29185868     -4.59790695  301      5.52693316      1.00000000
     -4.598  0.0000E+00  0.0000E+00  0.0000E+00  0.0000E+00  0.0000E+00  0.0000E+00  0.0000E+00  0.0000E+00  0.0000E+00  0.0000E+00  0.0000E+00  0.0000E+00  0.0000E+00  0.0000E+00  0.0000E+00  0.0000E+00  0.0000E+00  0.0000E+00
     -4.435  0.0000E+00  0.0000E+00  0.0000E+00  0.0000E+00  0.0000E+00  0.0000E+00  0.0000E+00  0.0000E+00  0.0000E+00  0.0000E+00  0.0000E+00  0.0000E+00  0.0000E+00  0.0000E+00  0.0000E+00  0.0000E+00  0.0000E+00  0.0000E+00
     -4.272  0.0000E+00  0.0000E+00  0.0000E+00  0.0000E+00  0.0000E+00  0.0000E+00  0.0000E+00  0.0000E+00  0.0000E+00  0.0000E+00  0.0000E+00  0.0000E+00  0.0000E+00  0.0000E+00  0.0000E+00  0.0000E+00  0.0000E+00  0.0000E+00
     -4.109 -0.2854E-33  0.0000E+00 -0.1346E-45  0.0000E+00 -0.1284E-45  0.0000E+00 -0.8946E-35  0.0000E+00 -0.1256E-43  0.0000E+00 -0.1159E-43  0.0000E+00 -0.7883E-37  0.0000E+00 -0.1255E-43  0.0000E+00 -0.2365E-36  0.0000E+00
     -3.946 -0.1812E-27 -0.1426E-29 -0.8543E-40 -0.1762E-42 -0.8151E-40 -0.2010E-42 -0.5680E-29 -0.4513E-31 -0.7978E-38 -0.4027E-41 -0.7362E-38 -0.1278E-39 -0.5005E-31 -0.1804E-33 -0.7969E-38 -0.4135E-41 -0.1502E-30 -0.5412E-33
     -3.783 -0.3017E-22 -0.3916E-24 -0.1422E-34 -0.4841E-37 -0.1357E-34 -0.5520E-37 -0.9455E-24 -0.1240E-25 -0.1328E-32 -0.1106E-35 -0.1225E-32 -0.3510E-34 -0.8332E-26 -0.4955E-28 -0.1327E-32 -0.1136E-35 -0.2500E-25 -0.1486E-27
     -3.620 -0.1313E-17 -0.2816E-19 -0.6191E-30 -0.3481E-32 -0.5906E-30 -0.3969E-32 -0.4116E-19 -0.8913E-21 -0.5781E-28 -0.7953E-31 -0.5334E-28 -0.2524E-29 -0.3627E-21 -0.3563E-23 -0.5774E-28 -0.8168E-31 -0.1088E-20 -0.1069E-22
     -3.457 -0.1439E-13 -0.5120E-15 -0.6782E-26 -0.6329E-28 -0.6471E-26 -0.7218E-28 -0.4509E-15 -0.1621E-16 -0.6333E-24 -0.1446E-26 -0.5844E-24 -0.4590E-25 -0.3974E-17 -0.6479E-19 -0.6326E-24 -0.1485E-26 -0.1192E-16 -0.1944E-18
     -3.294 -0.4169E-10 -0.2467E-11 -0.1965E-22 -0.3050E-24 -0.1875E-22 -0.3478E-24 -0.1307E-11 -0.7810E-13 -0.1835E-20 -0.6969E-23 -0.1693E-20 -0.2212E-21 -0.1151E-13 -0.3122E-15 -0.1833E-20 -0.7157E-23 -0.3454E-13 -0.9366E-15
     -3.131 -0.3069E-07 -0.3039E-08 -0.1453E-19 -0.3760E-21 -0.1386E-19 -0.4287E-21 -0.9619E-09 -0.9619E-10 -0.1351E-17 -0.8583E-20 -0.1247E-17 -0.2724E-18 -0.8476E-11 -0.3845E-12 -0.1349E-17 -0.8815E-20 -0.2543E-10 -0.1154E-11
     -2.968 -0.5569E-05 -0.9359E-06 -0.4226E-17 -0.1322E-18 -0.4105E-17 -0.1485E-18 -0.1746E-06 -0.2963E-07 -0.2454E-15 -0.2645E-17 -0.2265E-15 -0.8390E-16 -0.1538E-08 -0.1184E-09 -0.2452E-15 -0.2716E-17 -0.4615E-08 -0.3553E-09
     -2.805 -0.2294E-03 -0.6828E-04 -0.1095E-13 -0.2198E-15 -0.1095E-13 -0.2210E-15 -0.7189E-05 -0.2161E-05 -0.1184E-13 -0.2075E-15 -0.1106E-13 -0.6135E-14 -0.6335E-07 -0.8640E-08 -0.1183E-13 -0.2127E-15 -0.1901E-06 -0.2592E-07
     -2.642 -0.1420E-02 -0.9657E-03 -0.1941E-10 -0.7155E-12 -0.1941E-10 -0.7155E-12 -0.4452E-04 -0.3057E-04 -0.3179E-11 -0.5215E-13 -0.3175E-11 -0.1360E-12 -0.3923E-06 -0.1222E-06 -0.3179E-11 -0.5222E-13 -0.1177E-05 -0.3666E-06
     -2.479  0.7510E-02  0.1241E-02 -0.8759E-08 -0.6163E-09 -0.8759E-08 -0.6163E-09  0.2354E-03  0.3930E-04 -0.1406E-08 -0.4257E-10 -0.1406E-08 -0.4245E-10  0.2074E-05  0.1571E-06 -0.1406E-08 -0.4257E-10  0.6223E-05  0.4713E-06
     -2.316  0.3020E-01  0.2372E-01 -0.9558E-06 -0.1316E-06 -0.9558E-06 -0.1316E-06  0.9466E-03  0.7508E-03 -0.1534E-06 -0.9088E-08 -0.1534E-06 -0.9082E-08  0.8350E-05  0.3002E-05 -0.1534E-06 -0.9088E-08  0.2505E-04  0.9006E-05
     -2.153  0.1365E-01  0.2401E-01 -0.2211E-04 -0.6471E-05 -0.2211E-04 -0.6471E-05  0.4282E-03  0.7600E-03 -0.3550E-05 -0.4470E-06 -0.3550E-05 -0.4468E-06  0.3968E-05  0.3064E-05 -0.3550E-05 -0.4470E-06  0.1190E-04  0.9192E-05
     -1.990 -0.2164E-02 -0.1847E-03 -0.3216E-04 -0.5314E-04 -0.3215E-04 -0.5314E-04 -0.6748E-04 -0.6419E-05 -0.5166E-05 -0.3671E-05 -0.5162E-05 -0.3669E-05 -0.3127E-06  0.1867E-06 -0.5162E-05 -0.3671E-05 -0.9346E-06  0.5603E-06
     -1.827  0.2019E-01  0.5414E-02  0.6407E-03  0.2052E-03  0.6413E-03  0.2052E-03  0.6239E-03  0.1735E-03  0.1023E-03  0.1417E-04  0.1030E-03  0.1417E-04 -0.4009E-06 -0.1289E-06  0.1030E-03  0.1417E-04 -0.6058E-06 -0.3812E-06
     -1.665  0.3586E-01  0.3585E-01  0.1114E-02  0.1150E-02  0.1138E-02  0.1152E-02  0.1033E-02  0.1141E-02  0.1557E-03  0.7878E-04  0.1827E-03  0.7954E-04 -0.1093E-04 -0.3220E-06  0.1827E-03  0.7957E-04 -0.8629E-05 -0.3177E-06
     -1.502  0.2356E-02  0.2003E-01  0.8337E-04  0.6415E-03  0.2250E-03  0.6963E-03 -0.4027E-03  0.4666E-03 -0.1260E-03  0.2787E-04  0.3612E-04  0.4808E-04 -0.6568E-04 -0.7999E-05  0.3612E-04  0.4810E-04 -0.5179E-04 -0.7416E-05
     -1.339  0.2498E-01 -0.4517E-02  0.7185E-03 -0.1433E-03 -0.5296E-04 -0.2664E-04  0.3366E-02 -0.5155E-03  0.8749E-03 -0.4489E-04 -0.8503E-05 -0.1840E-05  0.3578E-03 -0.1702E-04 -0.8502E-05 -0.1840E-05  0.2821E-03 -0.1578E-04
     -1.176  0.1041E+00  0.5112E-01  0.3008E-02  0.1618E-02 -0.6983E-05 -0.2448E-04  0.1336E-01  0.6859E-02  0.3451E-02  0.6046E-03 -0.1121E-05 -0.1690E-05  0.1398E-02  0.2397E-03 -0.1121E-05 -0.1691E-05  0.1103E-02  0.2223E-03
     -1.013  0.4839E-01  0.1043E+00  0.1399E-02  0.3303E-02 -0.2150E-06 -0.1121E-05  0.6200E-02  0.1385E-01  0.1602E-02  0.1220E-02 -0.1432E-06 -0.7742E-07  0.6488E-03  0.4822E-03 -0.3341E-07 -0.7746E-07  0.5115E-03  0.4471E-03
     -0.850 -0.4053E-02  0.2449E-01 -0.1225E-03  0.7753E-03 -0.7331E-05 -0.1224E-07 -0.5144E-03  0.3249E-02 -0.1329E-03  0.2862E-03 -0.1336E-04 -0.1386E-08 -0.5443E-04  0.1131E-03 -0.1054E-05 -0.8460E-09 -0.4516E-04  0.1049E-03
     -0.687 -0.3303E-02 -0.4904E-02 -0.2209E-03 -0.1556E-03 -0.1750E-03 -0.4279E-06 -0.3197E-03 -0.6504E-03 -0.7778E-04 -0.5730E-04 -0.3190E-03 -0.1911E-06 -0.4912E-04 -0.2266E-04 -0.2518E-04 -0.2990E-07 -0.1002E-03 -0.2104E-04
     -0.524 -0.3598E-02 -0.1007E-02 -0.2927E-03 -0.5370E-04 -0.2907E-03 -0.2998E-04 -0.4265E-03 -0.1180E-03 -0.4975E-04 -0.1085E-04 -0.5291E-03 -0.1339E-04 -0.8558E-04 -0.4600E-05 -0.4411E-04 -0.2095E-05 -0.2497E-03 -0.6625E-05
     -0.361  0.5002E-01 -0.3618E-02  0.5099E-02 -0.4031E-03  0.5112E-02 -0.4025E-03  0.3372E-02 -0.2993E-03  0.4347E-03 -0.2834E-04  0.9347E-02 -0.1798E-03  0.7043E-03 -0.1783E-04  0.6476E-03 -0.2813E-04  0.2432E-02 -0.5332E-04
     -0.198  0.9785E-01  0.4702E-02  0.9237E-02  0.6198E-03  0.9368E-02  0.6198E-03  0.8360E-02  0.1797E-03 -0.1618E-02  0.4326E-04  0.1718E-01  0.2768E-03  0.3738E-03  0.1280E-04  0.8714E-03  0.4326E-04  0.5428E-02  0.3840E-04
     -0.035  0.5201E-01  0.8826E-01  0.2890E-02  0.9728E-02  0.2491E-02  0.9728E-02  0.1089E-01  0.7585E-02  0.5520E-02  0.6750E-03  0.2076E-02  0.4346E-02  0.2779E-03  0.4504E-03  0.3228E-02  0.6750E-03  0.3320E-02  0.1351E-02
      0.128  0.1213E+00  0.8852E-01  0.4245E-02  0.9339E-02  0.1328E-02  0.9339E-02  0.3235E-01  0.8385E-02  0.7119E-01  0.5717E-03 -0.5437E-02  0.4202E-02  0.4191E-01  0.4926E-03  0.1038E-01  0.5717E-03  0.1660E-01  0.1478E-02
      0.291  0.9869E-01  0.6787E-02  0.3322E-02  0.4957E-03  0.1231E-02  0.4981E-03  0.2017E-01  0.1200E-02  0.1094E+00  0.6361E-04  0.4612E-01  0.2096E-03  0.1032E+00  0.6320E-04  0.4323E-02  0.6811E-04  0.5738E-01  0.1941E-03
      0.454  0.4145E-01  0.5404E-01  0.2521E-02  0.1466E-02  0.2513E-02  0.1549E-02  0.2070E-02  0.1836E-01  0.3302E-01  0.2054E-02  0.1215E+00 -0.1212E-03  0.7607E-01  0.8579E-03 -0.1137E-02  0.2213E-02  0.8541E-01  0.2733E-02
      0.617  0.4520E-01  0.6795E-01  0.3016E-02  0.1948E-02  0.3894E-02  0.2340E-02  0.1394E-01  0.2218E-01  0.1124E+00  0.1997E-02  0.3817E-01  0.4844E-04  0.2395E+00  0.8788E-03  0.1484E-02  0.2742E-02  0.7362E-01  0.3385E-02
      0.780  0.1214E+00  0.3148E-01  0.6229E-02  0.2944E-02  0.7466E-02  0.2406E-03  0.5591E-01  0.9544E-02  0.2669E+00  0.5431E-02  0.3525E-01  0.5984E-05  0.4371E+00  0.1971E-02  0.2443E-01  0.2794E-03  0.1562E+00  0.7421E-03
      0.943  0.1120E+00  0.7291E-01  0.1002E-01  0.8398E-02  0.1083E-01 -0.1026E-03  0.5170E-01  0.2156E-01  0.1238E+00  0.1608E-01  0.2115E+00 -0.2617E-05  0.2696E+00  0.5779E-02  0.5624E-01 -0.1190E-03  0.1934E+00  0.1080E-02
      1.106  0.4174E-01  0.2886E-01  0.4294E-02  0.3249E-02  0.4920E-02 -0.9304E-05  0.2754E-01  0.8559E-02  0.3208E-01  0.6197E-02  0.1490E+00 -0.3917E-06  0.1463E+00  0.2229E-02  0.3954E-01 -0.1066E-04  0.1215E+00  0.4578E-03
      1.269  0.1644E-01 -0.3484E-02  0.5850E-02 -0.3849E-03  0.2177E-02 -0.2399E-04  0.1888E-01 -0.1061E-02  0.7473E-01 -0.7187E-03  0.3031E-01 -0.1637E-04  0.1498E+00 -0.2714E-03  0.6896E-01 -0.1493E-04  0.2010E+00 -0.7775E-04
      1.432  0.8456E-02 -0.4071E-02  0.1713E-01 -0.4057E-03  0.9736E-02 -0.4895E-03  0.1770E-01 -0.1593E-02  0.2484E+00 -0.4283E-03  0.1099E+00 -0.4009E-03  0.1135E+00 -0.3789E-03  0.2920E+00 -0.2911E-03  0.2051E+00 -0.4325E-03
      1.595  0.6411E-03 -0.1753E-02  0.1904E-01 -0.4803E-03  0.1378E-01 -0.6004E-03  0.1252E-01  0.2715E-03  0.2902E+00  0.4261E-04  0.2537E+00 -0.1586E-02  0.8202E-01 -0.2811E-04  0.5290E+00 -0.1558E-03  0.9487E-01 -0.1366E-03
      1.758  0.4384E-02  0.8314E-01  0.1362E-01  0.8069E-02  0.9238E-02  0.1325E-01  0.8443E-02  0.3446E-01  0.1043E+00  0.6021E-02  0.3055E+00  0.1038E-01  0.9717E-01  0.8034E-02  0.4926E+00  0.7967E-02  0.1312E+00  0.1072E-01
      1.921  0.1972E-01  0.1492E+00  0.2032E-01  0.1988E-01  0.2175E-01  0.2776E-01  0.2377E-01  0.4535E-01  0.2387E+00  0.6862E-02  0.1888E+00  0.4645E-01  0.1485E+00  0.1198E-01  0.3250E+00  0.1210E-01  0.2644E+00  0.1984E-01
      2.084  0.1594E-01  0.4802E-01  0.1706E-01  0.9904E-02  0.2278E-01  0.1126E-01  0.2160E-01  0.4555E-02  0.2182E+00 -0.4984E-02  0.2017E+00  0.3432E-01  0.1066E+00  0.7938E-03  0.1817E+00  0.1834E-02  0.1677E+00  0.7731E-02
      2.247  0.8679E-02  0.3583E-01  0.1195E-01  0.2419E-02  0.1334E-01  0.1063E-02  0.1143E-01  0.1555E-01  0.1641E+00  0.4121E-01  0.3675E+00 -0.1959E-03  0.2599E-01  0.1710E-01  0.3084E+00  0.2111E-02  0.5171E-01  0.3373E-02
      2.410  0.1560E-01  0.1290E+00  0.1725E-01  0.8077E-02  0.9325E-02  0.4705E-02  0.2732E-01  0.5841E-01  0.2779E+00  0.1372E+00  0.3760E+00 -0.1360E-02  0.3909E-01  0.5777E-01  0.3456E+00  0.8809E-02  0.1683E+00  0.1285E-01
      2.573  0.2060E-01  0.6271E-01  0.3881E-01  0.3439E-02  0.2730E-01  0.2082E-02  0.3067E-01  0.2494E-01  0.3135E+00  0.5478E-01  0.2433E+00  0.2897E-01  0.1061E+00  0.2547E-01  0.2949E+00  0.3655E-02  0.2726E+00  0.1263E-01
      2.736  0.1987E-01  0.5809E-02  0.3583E-01 -0.4982E-03  0.2950E-01 -0.4813E-03  0.1710E-01 -0.1496E-02  0.1931E+00 -0.9674E-02  0.4233E-01  0.3708E-01  0.9700E-01 -0.1522E-02  0.1180E+00 -0.6180E-03  0.1424E+00  0.9218E-02
      2.899  0.3162E-02  0.3094E-02  0.3526E-02 -0.1527E-03  0.2524E-02 -0.3402E-03  0.2118E-02  0.3554E-02  0.2136E-01  0.5026E-02  0.1386E-02 -0.2486E-02  0.6814E-02  0.3936E-02  0.5257E-02 -0.1102E-02 -0.1794E-03  0.6999E-02
      3.061  0.6051E-02  0.5747E-01  0.8739E-02  0.3532E-02  0.7255E-02  0.7124E-02  0.1524E-03  0.3241E-01  0.1327E+00  0.9187E-01  0.1288E+00  0.5462E-01  0.6907E-01  0.6674E-01  0.9552E-01  0.7286E-02  0.1759E-01  0.2618E-01
      3.224  0.1886E-01  0.1130E+00  0.2502E-01  0.7539E-02  0.1830E-01  0.1595E-01  0.5036E-02  0.7753E-01  0.2687E+00  0.1060E+00  0.1306E+00  0.1627E+00  0.2467E+00  0.1007E+00  0.1373E+00  0.2417E-01  0.1422E+00  0.6735E-01
      3.387  0.1068E-01  0.4485E-01  0.1648E-01  0.6505E-02  0.9477E-02  0.9232E-02  0.7366E-02  0.3833E-01  0.3917E+00  0.2119E-01  0.5544E-01  0.6253E-01  0.4062E+00  0.4245E-01  0.1784E+00  0.1416E-01  0.2109E+00  0.5734E-01
      3.550  0.5393E-02  0.7937E-02  0.8396E-02  0.4515E-02  0.7204E-02  0.3895E-02  0.4558E-02  0.1902E-01  0.4460E+00  0.6934E-02  0.1816E+00 -0.4990E-02  0.6227E+00  0.7656E-01  0.2706E+00  0.8932E-02  0.5047E+00  0.9071E-01