    1    1    1    2
  0.1181995E+02  0.2485493E-09  0.2485493E-09  0.2485493E-09  0.5000000E-15
  1.000000000000000E-004
  CAR 
 unknown system                          
    8   26   11
 
  0.6250000E-01  0.6250000E-01  0.6250000E-01  0.1562500E-01
   1       -1.781320     -1.705199
   2        2.210769      5.452746
   3        2.210833      5.452749
   4        2.972471      6.330683
   5        3.497199      7.893510
   6        3.497217      7.893522
   7       26.142696     26.695241
   8       26.142724     26.695313
   9       29.698312     30.529123
  10       31.016451     31.054784
  11       35.480415     36.012702
 
  0.1875000E+00  0.6250000E-01  0.6250000E-01  0.4687500E-01
   1       -0.311629     -0.037584
   2        1.834258      4.955831
   3        2.099536      5.114936
   4        3.442437      7.356654
   5        3.606508      7.709034
   6        3.986927      8.055220
   7       20.713416     21.779014
   8       23.836497     24.477203
   9       26.063260     27.118659
  10       30.991486     31.142466
  11       34.652892     35.952094
 
  0.3125000E+00  0.6250000E-01  0.6250000E-01  0.4687500E-01
   1        0.394216      1.915440
   2        1.510126      4.525728
   3        3.125543      5.038653
   4        3.580621      7.775523
   5        3.694801      8.210380
   6        5.551559      8.589767
   7       15.324363     16.796597
   8       22.225347     22.741913
   9       23.871449     24.717791
  10       30.207827     30.954902
  11       33.947204     35.304642
 
  0.4375000E+00  0.6250000E-01  0.6250000E-01  0.2343750E-01
   1        0.330297      2.596117
   2        1.386162      4.362293
   3        3.639569      5.573079
   4        3.726672      7.842370
   5        3.985890      8.274093
   6        7.247216      9.358450
   7       12.173563     14.220664
   8       21.648032     22.087925
   9       23.060904     23.796650
  10       29.919965     30.836386
  11       33.786807     35.257420
 
 -0.6250000E-01  0.6250000E-01  0.6250000E-01  0.1171875E-01
   1       -2.375645     -2.314712
   2        2.397530      5.691408
   3        2.397679      5.691656
   4        2.475028      5.799446
   5        3.428054      7.807841
   6        3.612222      8.073426
   7       28.231040     28.273775
   8       29.520094     29.505378
   9       29.520146     29.505461
  10       32.424868     33.109533
  11       34.274280     35.570863
 
  0.1875000E+00  0.1875000E+00  0.6250000E-01  0.4687500E-01
   1        0.866508      1.788502
   2        1.619285      4.547395
   3        1.901548      4.626281
   4        3.517118      7.783014
   5        3.732583      8.175644
   6        5.722982      8.773538
   7       18.240526     19.440050
   8       19.118271     20.062460
   9       22.984063     23.798705
  10       32.931005     33.049771
  11       36.172775     37.046744
 
  0.3125000E+00  0.1875000E+00  0.6250000E-01  0.9375000E-01
   1        0.917014      3.143897
   2        1.463875      4.286648
   3        2.594335      4.692572
   4        3.651298      7.914158
   5        3.834173      8.244610
   6        8.386546     10.545707
   7       13.683369     15.239002
   8       17.577100     18.550673
   9       21.749242     22.498827
  10       33.138112     33.589361
  11       37.410917     37.875518
 
 -0.1875000E+00  0.1875000E+00  0.6250000E-01  0.4687500E-01
   1       -1.236685     -1.119777
   2        2.151603      5.366601
   3        2.364729      5.560604
   4        3.068545      6.459363
   5        3.211130      7.426653
   6        3.707280      8.177942
   7       23.556457     24.451051
   8       27.105184     27.386773
   9       27.640868     28.516365
  10       31.759400     32.472771
  11       31.770741     32.794879
 
  0.3125000E+00  0.3125000E+00  0.6250000E-01  0.1562500E-01
   1        1.140461      3.789764
   2        1.906634      4.318173
   3        1.906712      4.318302
   4        3.779098      8.099779
   5        3.779145      8.099853
   6       11.920112     13.499176
   7       11.920193     13.499413
   8       14.392831     15.647504
   9       21.262303     22.065273
  10       35.607769     35.948120
  11       35.607827     35.948320
 
 -0.3125000E+00  0.3125000E+00  0.6250000E-01  0.4687500E-01
   1        0.099805      0.867900
   2        1.783757      4.892731
   3        2.631956      5.230370
   4        3.428651      7.426453
   5        3.969164      7.565776
   6        4.027475      8.289482
   7       17.842969     19.137815
   8       24.817422     24.992594
   9       25.561645     26.617619
  10       29.824978     30.941205
  11       31.825230     32.907393
 
 -0.1875000E+00  0.3125000E+00  0.6250000E-01  0.4687500E-01
   1        0.061016      0.470636
   2        1.986505      5.174202
   3        2.196660      5.235855
   4        3.104029      7.095818
   5        3.754122      7.299565
   6        4.183193      8.388195
   7       20.765107     21.928605
   8       21.820603     22.693663
   9       28.201091     28.881307
  10       28.579862     29.197973
  11       31.991234     32.922404
 
 -0.4375000E+00  0.4375000E+00  0.6250000E-01  0.4687500E-01
   1        0.238241      2.336040
   2        1.533246      4.576018
   3        3.242520      5.539638
   4        3.567190      7.626142
   5        4.782726      8.480742
   6        5.876753      8.541517
   7       13.107327     14.959243
   8       23.519664     23.578344
   9       24.097408     24.935349
  10       29.017486     30.343779
  11       31.923009     33.331974
 
 -0.3125000E+00  0.4375000E+00  0.6250000E-01  0.9375000E-01
   1        0.705512      2.339889
   2        1.711999      4.703768
   3        2.372840      5.020790
   4        3.391640      7.296603
   5        4.152963      8.117430
   6        6.136146      9.078919
   7       15.706674     17.122186
   8       19.627193     20.577240
   9       26.251855     26.689961
  10       29.027281     30.028238
  11       32.615083     33.510789
 
 -0.4375000E+00 -0.4375000E+00  0.6250000E-01  0.4687500E-01
   1        0.621912      3.036201
   2        1.681041      4.679823
   3        2.527753      5.007145
   4        3.488879      7.465392
   5        4.488709      8.310746
   6        8.357735     10.271872
   7       12.310021     14.246412
   8       18.968428     19.870603
   9       25.464534     25.819102
  10       29.216681     30.487708
  11       33.755613     34.274643
 
 -0.3125000E+00 -0.4375000E+00  0.6250000E-01  0.4687500E-01
   1        1.255420      3.683978
   2        1.482807      4.308931
   3        2.006677      4.739970
   4        3.678655      7.563362
   5        4.119699      8.037003
   6        9.483083     11.472951
   7       13.822213     15.362681
   8       15.209415     16.353315
   9       26.546623     27.198459
  10       29.565222     30.280825
  11       31.674989     32.445615
 
  0.1875000E+00  0.1875000E+00  0.1875000E+00  0.1562500E-01
   1        1.465145      3.376975
   2        1.465190      4.191699
   3        1.891211      4.191735
   4        3.706405      8.183250
   5        3.706438      8.183273
   6        8.301443     10.625070
   7       16.639008     17.823593
   8       16.639064     17.823619
   9       18.116473     18.892667
  10       37.828703     37.356682
  11       39.886685     40.567143
 
  0.3125000E+00  0.1875000E+00  0.1875000E+00  0.2343750E-01
   1        1.421623      3.819938
   2        1.437290      4.085075
   3        2.168784      4.367295
   4        3.741200      8.216503
   5        3.750503      8.309709
   6       11.227974     12.795427
   7       12.992098     14.537086
   8       16.094278     17.264860
   9       17.192395     18.002362
  10       38.614160     38.596467
  11       42.013831     42.069597
 
 -0.1875000E+00  0.1875000E+00  0.1875000E+00  0.1171875E-01
   1       -0.266655     -0.012590
   2        2.497815      5.764915
   3        2.568057      5.765141
   4        2.568203      6.471769
   5        3.080523      6.491848
   6        4.109775      8.470097
   7       23.677433     24.644891
   8       24.554443     25.643840
   9       24.554577     25.643996
  10       26.835367     27.183441
  11       36.131159     36.387463
 
 -0.3125000E+00  0.3125000E+00  0.1875000E+00  0.4687500E-01
   1        0.736511      1.773513
   2        1.832164      5.184593
   3        2.440443      5.594405
   4        3.069062      6.548688
   5        3.917474      7.434797
   6        5.186344      8.772148
   7       18.686420     19.926727
   8       22.060887     23.088787
   9       23.285949     24.174047
  10       27.244410     27.923786
  11       34.668658     35.777595
 
 -0.4375000E+00  0.4375000E+00  0.1875000E+00  0.4687500E-01
   1        0.718643      3.127290
   2        1.847924      4.652457
   3        2.257567      5.365355
   4        3.269276      6.924935
   5        4.708264      8.389992
   6        7.918777     10.018687
   7       13.678818     15.289092
   8       20.562377     21.419539
   9       22.475273     23.359632
  10       29.647043     30.395528
  11       33.737520     34.933332
 
 -0.3125000E+00  0.4375000E+00  0.1875000E+00  0.4687500E-01
   1        1.102433      3.182580
   2        1.233291      4.489921
   3        2.531282      5.660927
   4        3.445788      6.900654
   5        4.322586      7.975157
   6        7.732753     10.043965
   7       16.584039     17.954037
   8       17.289765     18.264188
   9       24.568020     25.697723
  10       26.268431     26.930912
  11       33.506699     34.595366
 
 -0.4375000E+00 -0.4375000E+00  0.1875000E+00  0.4687500E-01
   1        0.924473      3.843290
   2        1.301711      4.179047
   3        2.360726      5.388075
   4        3.739107      7.270631
   5        4.539828      8.201211
   6       10.785546     12.334852
   7       12.869248     14.438256
   8       16.317248     17.354029
   9       24.638279     25.640900
  10       27.735636     28.642497
  11       31.255134     32.193821
 
 -0.3125000E+00  0.3125000E+00  0.3125000E+00  0.1171875E-01
   1        0.917907      2.912467
   2        1.169113      4.661909
   3        3.318983      6.539502
   4        3.319159      6.539789
   5        3.945276      7.496306
   6        7.112066      9.549366
   7       19.264099     20.149220
   8       19.264190     20.149500
   9       21.174468     22.892663
  10       23.550861     24.340095
  11       34.842378     36.163755
 
 -0.4375000E+00  0.4375000E+00  0.3125000E+00  0.4687500E-01
   1        0.656654      3.558649
   2        0.793227      3.960470
   3        3.440776      6.724559
   4        3.721324      7.036295
   5        4.600655      8.261446
   6       10.298498     11.744375
   7       14.958556     16.049918
   8       17.567052     18.241718
   9       21.402325     23.005624
  10       24.372098     25.503022
  11       30.391506     31.602612
 
 -0.4375000E+00 -0.4375000E+00  0.3125000E+00  0.1562500E-01
   1        0.511921      3.643517
   2        0.511927      3.643524
   3        3.550863      6.791620
   4        4.465630      8.049018
   5        4.465812      8.049498
   6       13.665230     14.677379
   7       13.665340     14.677601
   8       14.819001     15.591286
   9       22.856100     24.326247
  10       22.856144     24.326339
  11       27.982637     29.122503
 
 -0.4375000E+00  0.4375000E+00  0.4375000E+00  0.1171875E-01
   1        0.244165      3.376092
   2        0.260213      3.467722
   3        4.427743      7.983494
   4        4.427974      7.983973
   5        4.565655      8.230141
   6       13.140526     13.860135
   7       15.688760     16.060906
   8       15.688774     16.061390
   9       20.191671     22.316929
  10       21.468954     23.195603
  11       26.461244     27.683521
