       N       E                     dE             d eps       ncg     rms          rms(c)
DAV:   1     0.140089270690E+02    0.14009E+02   -0.27276E+03  1280   0.536E+02
DAV:   2    -0.618207047953E+01   -0.20191E+02   -0.18254E+02  1171   0.971E+01
DAV:   3    -0.645985039891E+01   -0.27778E+00   -0.27718E+00  1300   0.140E+01
DAV:   4    -0.646060961255E+01   -0.75921E-03   -0.75918E-03  1237   0.668E-01
DAV:   5    -0.646061327568E+01   -0.36631E-05   -0.36636E-05  1020   0.488E-02    0.960E+00
DAV:   6    -0.670151821080E+01   -0.24090E+00   -0.71453E+00  1273   0.353E+01    0.194E+00
DAV:   7    -0.668164379743E+01    0.19874E-01   -0.40670E-01  1243   0.710E+00    0.777E-01
DAV:   8    -0.667417779078E+01    0.74660E-02   -0.14527E-02  1333   0.866E-01    0.348E-01
DAV:   9    -0.667351519574E+01    0.66260E-03   -0.65645E-03  1410   0.487E-01    0.280E-01
DAV:  10    -0.667332142269E+01    0.19377E-03   -0.21414E-03  1246   0.446E-01    0.139E-01
DAV:  11    -0.667343280578E+01   -0.11138E-03   -0.18604E-03  1274   0.366E-01    0.555E-02
DAV:  12    -0.667356129928E+01   -0.12849E-03   -0.65401E-05   717   0.937E-02    0.520E-02
DAV:  13    -0.667355336940E+01    0.79299E-05   -0.16545E-04   630   0.118E-01
   1 F= -.66735534E+01 E0= -.66729182E+01  d E =-.190539E-02  mag=     2.5806
