<?xml version="1.0" encoding="ISO-8859-1"?>
<modeling>
 <generator>
  <i name="program" type="string">vasp </i>
  <i name="version" type="string">5.2.12  </i>
  <i name="subversion" type="string">11Nov11 complex                                                      serial </i>
  <i name="platform" type="string">LinuxIFC </i>
  <i name="date" type="string">2012 10 18 </i>
  <i name="time" type="string">09:05:44 </i>
 </generator>
 <incar>
  <i type="string" name="PREC">normal</i>
  <i type="int" name="ISPIN">     2</i>
  <v name="MAGMOM">      5.00000000</v>
  <i type="logical" name="LWAVE"> F  </i>
  <i type="logical" name="LORBIT"> F  </i>
  <i type="logical" name="LDAU"> T  </i>
  <v type="int" name="LDAUL">     2</v>
  <v name="LDAUU">      2.00000000</v>
  <v name="LDAUJ">      0.00000000</v>
 </incar>
 <kpoints>
  <generation param="Monkhorst-Pack">
   <v type="int" name="divisions">       8        8        8 </v>
   <v name="usershift">      0.00000000       0.00000000       0.00000000 </v>
   <v name="genvec1">      0.12500000       0.00000000       0.00000000 </v>
   <v name="genvec2">      0.00000000       0.12500000       0.00000000 </v>
   <v name="genvec3">      0.00000000       0.00000000       0.12500000 </v>
   <v name="shift">      0.50000000       0.50000000       0.50000000 </v>
  </generation>
  <varray name="kpointlist" >
   <v>       0.06250000       0.06250000       0.06250000 </v>
   <v>       0.18750000       0.06250000       0.06250000 </v>
   <v>       0.31250000       0.06250000       0.06250000 </v>
   <v>       0.43750000       0.06250000       0.06250000 </v>
   <v>      -0.06250000       0.06250000       0.06250000 </v>
   <v>       0.18750000       0.18750000       0.06250000 </v>
   <v>       0.31250000       0.18750000       0.06250000 </v>
   <v>      -0.18750000       0.18750000       0.06250000 </v>
   <v>       0.31250000       0.31250000       0.06250000 </v>
   <v>      -0.31250000       0.31250000       0.06250000 </v>
   <v>      -0.18750000       0.31250000       0.06250000 </v>
   <v>      -0.43750000       0.43750000       0.06250000 </v>
   <v>      -0.31250000       0.43750000       0.06250000 </v>
   <v>      -0.43750000      -0.43750000       0.06250000 </v>
   <v>      -0.31250000      -0.43750000       0.06250000 </v>
   <v>       0.18750000       0.18750000       0.18750000 </v>
   <v>       0.31250000       0.18750000       0.18750000 </v>
   <v>      -0.18750000       0.18750000       0.18750000 </v>
   <v>      -0.31250000       0.31250000       0.18750000 </v>
   <v>      -0.43750000       0.43750000       0.18750000 </v>
   <v>      -0.31250000       0.43750000       0.18750000 </v>
   <v>      -0.43750000      -0.43750000       0.18750000 </v>
   <v>      -0.31250000       0.31250000       0.31250000 </v>
   <v>      -0.43750000       0.43750000       0.31250000 </v>
   <v>      -0.43750000      -0.43750000       0.31250000 </v>
   <v>      -0.43750000       0.43750000       0.43750000 </v>
  </varray>
  <varray name="weights" >
   <v>       0.01562500 </v>
   <v>       0.04687500 </v>
   <v>       0.04687500 </v>
   <v>       0.02343750 </v>
   <v>       0.01171875 </v>
   <v>       0.04687500 </v>
   <v>       0.09375000 </v>
   <v>       0.04687500 </v>
   <v>       0.01562500 </v>
   <v>       0.04687500 </v>
   <v>       0.04687500 </v>
   <v>       0.04687500 </v>
   <v>       0.09375000 </v>
   <v>       0.04687500 </v>
   <v>       0.04687500 </v>
   <v>       0.01562500 </v>
   <v>       0.02343750 </v>
   <v>       0.01171875 </v>
   <v>       0.04687500 </v>
   <v>       0.04687500 </v>
   <v>       0.04687500 </v>
   <v>       0.04687500 </v>
   <v>       0.01171875 </v>
   <v>       0.04687500 </v>
   <v>       0.01562500 </v>
   <v>       0.01171875 </v>
  </varray>
 </kpoints>
 <parameters>
  <separator name="general" >
   <i type="string" name="SYSTEM">unknown system</i>
   <i type="logical" name="LCOMPAT"> F  </i>
  </separator>
  <separator name="electronic" >
   <i type="string" name="PREC">normal</i>
   <i name="ENMAX">    267.88300000</i>
   <i name="ENAUG">    511.36800000</i>
   <i name="EDIFF">      0.00010000</i>
   <i type="int" name="IALGO">    38</i>
   <i type="int" name="IWAVPR">     0</i>
   <i type="int" name="NBANDS">    11</i>
   <i name="NELECT">      8.00000000</i>
   <i type="int" name="TURBO">     0</i>
   <i type="int" name="IRESTART">     0</i>
   <i type="int" name="NREBOOT">     0</i>
   <i type="int" name="NMIN">     0</i>
   <i name="EREF">      0.00000000</i>
   <separator name="electronic smearing" >
    <i type="int" name="ISMEAR">     1</i>
    <i name="SIGMA">      0.20000000</i>
    <i name="KSPACING">      0.50000000</i>
    <i type="logical" name="KGAMMA"> T  </i>
   </separator>
   <separator name="electronic projectors" >
    <i type="logical" name="LREAL"> F  </i>
    <v name="ROPT">      0.00000000</v>
    <i type="int" name="LMAXPAW">  -100</i>
    <i type="int" name="LMAXMIX">     2</i>
    <i type="logical" name="NLSPLINE"> F  </i>
   </separator>
   <separator name="electronic startup" >
    <i type="int" name="ISTART">     0</i>
    <i type="int" name="ICHARG">     2</i>
    <i type="int" name="INIWAV">     1</i>
   </separator>
   <separator name="electronic spin" >
    <i type="int" name="ISPIN">     2</i>
    <i type="logical" name="LNONCOLLINEAR"> F  </i>
    <v name="MAGMOM">      5.00000000</v>
    <i name="NUPDOWN">     -1.00000000</i>
    <i type="logical" name="LSORBIT"> F  </i>
    <v name="SAXIS">      0.00000000      0.00000000      1.00000000</v>
    <i type="logical" name="LSPIRAL"> F  </i>
    <v name="QSPIRAL">      0.00000000      0.00000000      0.00000000</v>
    <i type="logical" name="LZEROZ"> F  </i>
   </separator>
   <separator name="electronic exchange-correlation" >
    <i type="logical" name="LASPH"> F  </i>
    <i type="logical" name="LMETAGGA"> F  </i>
   </separator>
   <separator name="electronic convergence" >
    <i type="int" name="NELM">    60</i>
    <i type="int" name="NELMDL">    -5</i>
    <i type="int" name="NELMIN">     2</i>
    <i name="ENINI">    267.88300000</i>
    <separator name="electronic convergence detail" >
     <i type="logical" name="LDIAG"> T  </i>
     <i type="logical" name="LSUBROT"> T  </i>
     <i name="WEIMIN">      0.00000000</i>
     <i name="EBREAK">      0.00000227</i>
     <i name="DEPER">      0.30000000</i>
     <i type="int" name="NRMM">     4</i>
     <i name="TIME">      0.40000000</i>
    </separator>
   </separator>
   <separator name="electronic mixer" >
    <i name="AMIX">      0.40000000</i>
    <i name="BMIX">      1.00000000</i>
    <i name="AMIN">      0.10000000</i>
    <i name="AMIX_MAG">      1.60000000</i>
    <i name="BMIX_MAG">      1.00000000</i>
    <separator name="electronic mixer details" >
     <i type="int" name="IMIX">     4</i>
     <i type="int" name="MAXMIX">   -45</i>
     <i name="WC">    100.00000000</i>
     <i type="int" name="INIMIX">     1</i>
     <i type="int" name="MIXPRE">     1</i>
     <i type="int" name="MREMOVE">     5</i>
    </separator>
   </separator>
   <separator name="electronic dipolcorrection" >
    <i type="logical" name="LDIPOL"> F  </i>
    <i type="logical" name="LMONO"> F  </i>
    <i type="int" name="IDIPOL">     0</i>
    <i name="EPSILON">      1.00000000</i>
    <v name="DIPOL">   -100.00000000   -100.00000000   -100.00000000</v>
    <i name="EFIELD">      0.00000000</i>
   </separator>
  </separator>
  <separator name="grids" >
   <i type="int" name="NGX">    10</i>
   <i type="int" name="NGY">    10</i>
   <i type="int" name="NGZ">    10</i>
   <i type="int" name="NGXF">    20</i>
   <i type="int" name="NGYF">    20</i>
   <i type="int" name="NGZF">    20</i>
   <i type="logical" name="ADDGRID"> F  </i>
  </separator>
  <separator name="ionic" >
   <i type="int" name="NSW">     0</i>
   <i type="int" name="IBRION">    -1</i>
   <i type="int" name="ISIF">     2</i>
   <i name="PSTRESS">      0.00000000</i>
   <i name="EDIFFG">      0.00100000</i>
   <i type="int" name="NFREE">     0</i>
   <i name="POTIM">      0.50000000</i>
   <i name="SMASS">     -3.00000000</i>
   <i name="SCALEE">      1.00000000</i>
  </separator>
  <separator name="ionic md" >
   <i name="TEBEG">      0.00010000</i>
   <i name="TEEND">      0.00010000</i>
   <i type="int" name="NBLOCK">     1</i>
   <i type="int" name="KBLOCK">     1</i>
   <i type="int" name="NPACO">   256</i>
   <i name="APACO">     16.00000000</i>
  </separator>
  <separator name="symmetry" >
   <i type="int" name="ISYM">     2</i>
   <i name="SYMPREC">      0.00001000</i>
  </separator>
  <separator name="dos" >
   <i type="logical" name="LORBIT"> F  </i>
   <v name="RWIGS">     -1.00000000</v>
   <i type="int" name="NEDOS">   301</i>
   <i name="EMIN">     10.00000000</i>
   <i name="EMAX">    -10.00000000</i>
   <i name="EFERMI">      0.00000000</i>
  </separator>
  <separator name="writing" >
   <i type="int" name="NWRITE">     2</i>
   <i type="logical" name="LWAVE"> F  </i>
   <i type="logical" name="LCHARG"> T  </i>
   <i type="logical" name="LPARD"> F  </i>
   <i type="logical" name="LVTOT"> F  </i>
   <i type="logical" name="LVHAR"> F  </i>
   <i type="logical" name="LELF"> F  </i>
   <i type="logical" name="LOPTICS"> F  </i>
   <v name="STM">      0.00000000      0.00000000      0.00000000      0.00000000      0.00000000      0.00000000      0.00000000</v>
  </separator>
  <separator name="performance" >
   <i type="int" name="NPAR">     1</i>
   <i type="int" name="NSIM">     4</i>
   <i type="int" name="NBLK">    -1</i>
   <i type="logical" name="LPLANE"> T  </i>
   <i type="logical" name="LSCALAPACK"> F  </i>
   <i type="logical" name="LSCAAWARE"> F  </i>
   <i type="logical" name="LSCALU"> F  </i>
   <i type="logical" name="LASYNC"> F  </i>
   <i type="logical" name="LORBITALREAL"> F  </i>
  </separator>
  <separator name="miscellaneous" >
   <i type="int" name="IDIOT">     3</i>
   <i type="logical" name="LMUSIC"> F  </i>
   <v name="POMASS">     55.84700000</v>
   <v name="DARWINR">      0.00000000</v>
   <v name="DARWINV">      1.00000000</v>
   <i type="logical" name="LCORR"> T  </i>
  </separator>
  <i type="logical" name="GGA_COMPAT"> T  </i>
  <i type="logical" name="LBERRY"> F  </i>
  <i type="int" name="ICORELEVEL">     0</i>
  <i type="logical" name="LDAU"> T  </i>
  <v type="int" name="LDAUTYPE">     2</v>
  <v type="int" name="LDAUL">     2</v>
  <v name="LDAUU">      2.00000000</v>
  <v name="LDAUJ">      0.00000000</v>
  <i type="int" name="LDAUPRINT">     0</i>
  <i type="int" name="I_CONSTRAINED_M">     0</i>
  <separator name="electronic exchange-correlation" >
   <i type="string" name="GGA">--</i>
   <i type="int" name="VOSKOWN">     0</i>
   <i type="logical" name="LHFCALC"> F  </i>
   <i type="string" name="PRECFOCK"></i>
   <i type="logical" name="LHFONE"> F  </i>
   <i type="logical" name="LRHFCALC"> F  </i>
   <i type="logical" name="LTHOMAS"> F  </i>
   <i type="logical" name="LMODELHF"> F  </i>
   <i name="ENCUT4O">     -1.00000000</i>
   <i type="int" name="EXXOEP">     0</i>
   <i type="int" name="FOURORBIT">     0</i>
   <i name="AEXX">      0.00000000</i>
   <i name="HFALPHA">      0.00000000</i>
   <i name="ALDAX">      1.00000000</i>
   <i name="AGGAX">      1.00000000</i>
   <i name="ALDAC">      1.00000000</i>
   <i name="AGGAC">      1.00000000</i>
   <i type="int" name="NKREDX">     1</i>
   <i type="int" name="NKREDY">     1</i>
   <i type="int" name="NKREDZ">     1</i>
   <i type="logical" name="SHIFTRED"> F  </i>
   <i type="logical" name="ODDONLY"> F  </i>
   <i type="logical" name="EVENONLY"> F  </i>
   <i type="int" name="LMAXFOCK">     0</i>
   <i type="int" name="NMAXFOCKAE">     0</i>
   <i type="logical" name="LFOCKAEDFT"> F  </i>
   <i name="HFSCREEN">      0.00000000</i>
   <i name="HFSCREENC">      0.00000000</i>
  </separator>
  <separator name="vdW DFT" >
   <i type="logical" name="LUSE_VDW"> F  </i>
   <i name="Zab_VDW">     -0.84910000</i>
   <i name="PARAM1">      0.12340000</i>
   <i name="PARAM2">      1.00000000</i>
   <i name="PARAM3">      0.00000000</i>
  </separator>
  <separator name="model GW" >
   <i type="int" name="MODEL_GW">     0</i>
   <i name="MODEL_EPS0">      7.09197090</i>
   <i name="MODEL_ALPHA">      1.00000000</i>
  </separator>
  <separator name="linear response parameters" >
   <i type="logical" name="LEPSILON"> F  </i>
   <i type="logical" name="LRPA"> F  </i>
   <i type="logical" name="LNABLA"> F  </i>
   <i type="logical" name="LVEL"> F  </i>
   <i type="int" name="KINTER">     0</i>
   <i name="CSHIFT">      0.10000000</i>
   <i name="OMEGAMAX">     -1.00000000</i>
  </separator>
  <separator name="orbital magnetization" >
   <i type="logical" name="NUCIND"> F  </i>
   <v name="MAGPOS">      0.00000000      0.00000000      0.00000000</v>
   <i type="logical" name="LNICSALL"> T  </i>
   <i type="logical" name="ORBITALMAG"> F  </i>
   <i type="logical" name="LMAGBLOCH"> F  </i>
   <i type="logical" name="LCHIMAG"> F  </i>
   <i type="logical" name="LGAUGE"> T  </i>
   <i type="int" name="MAGATOM">     0</i>
   <v name="MAGDIPOL">      0.00000000      0.00000000      0.00000000</v>
   <v name="AVECCONST">      0.00000000      0.00000000      0.00000000</v>
  </separator>
  <separator name="response functions" >
   <i type="logical" name="LADDER"> F  </i>
   <i type="logical" name="LHARTREE"> T  </i>
   <i type="int" name="IBSE">     0</i>
   <i type="logical" name="LTCTE"> F  </i>
   <i type="logical" name="LTETE"> F  </i>
   <i type="logical" name="LFXCEPS"> F  </i>
   <i type="logical" name="L2ORDER"> F  </i>
   <i type="logical" name="LUSEW"> F  </i>
   <i name="ENCUTGW">     -2.00000000</i>
   <i name="ENCUTGWSOFT">     -2.00000000</i>
   <i name="ENCUTLF">     -1.00000000</i>
   <i type="int" name="LMAXMP2">    -1</i>
   <i name="SCISSOR">      0.00000000</i>
   <i type="int" name="NOMEGA">     0</i>
   <i type="int" name="NOMEGAR">     0</i>
   <i type="int" name="NBANDSGW">    -1</i>
   <i type="int" name="NBANDSO">    -1</i>
   <i type="int" name="NBANDSV">    -1</i>
   <i name="OPTEMAX">      0.00000000</i>
   <i type="int" name="NELM">     1</i>
   <i type="int" name="DIM">     3</i>
   <i type="int" name="ANTIRES">     0</i>
   <i name="OMEGAMAX">    -30.00000000</i>
   <i name="OMEGATL">   -200.00000000</i>
   <i type="int" name="OMEGAGRID">     0</i>
   <i name="CSHIFT">     -0.10000000</i>
   <i type="logical" name="SELFENERGY"> F  </i>
   <i type="logical" name="LSPECTRAL"> F  </i>
   <i type="logical" name="ODDONLYGW"> F  </i>
   <i type="logical" name="EVENONLYGW"> F  </i>
   <i type="int" name="NKREDLFX">     1</i>
   <i type="int" name="NKREDLFY">     1</i>
   <i type="int" name="NKREDLFZ">     1</i>
   <i type="int" name="MAXMEM">  1800</i>
   <i type="int" name="TELESCOPE">     0</i>
  </separator>
 </parameters>
 <atominfo>
  <atoms>       1 </atoms>
  <types>       1 </types>
  <array name="atoms" >
   <dimension dim="1">ion</dimension>
   <field type="string">element</field>
   <field type="int">atomtype</field>
   <set>
    <rc><c>Fe</c><c>   1</c></rc>
   </set>
  </array>
  <array name="atomtypes" >
   <dimension dim="1">type</dimension>
   <field type="int">atomspertype</field>
   <field type="string">element</field>
   <field>mass</field>
   <field>valence</field>
   <field type="string">pseudopotential</field>
   <set>
    <rc><c>   1</c><c>Fe</c><c>     55.84700000</c><c>      8.00000000</c><c> PAW_PBE Fe 06Sep2000                   </c></rc>
   </set>
  </array>
 </atominfo>
 <structure name="initialpos" >
  <crystal>
   <varray name="basis" >
    <v>      -1.43500000       1.43500000       1.43500000 </v>
    <v>       1.43500000      -1.43500000       1.43500000 </v>
    <v>       1.43500000       1.43500000      -1.43500000 </v>
   </varray>
   <i name="volume">     11.81995150 </i>
   <varray name="rec_basis" >
    <v>       0.00000000       0.34843206       0.34843206 </v>
    <v>       0.34843206       0.00000000       0.34843206 </v>
    <v>       0.34843206       0.34843206       0.00000000 </v>
   </varray>
  </crystal>
  <varray name="positions" >
   <v>       0.00000000       0.00000000       0.00000000 </v>
  </varray>
 </structure>
 <calculation>
  <scstep>
   <time name="dav">    0.28    0.33</time>
   <time name="total">    0.33    0.38</time>
   <energy>
    <i name="alphaZ">     58.45084694 </i>
    <i name="ewald">   -584.29755670 </i>
    <i name="hartreedc">   -114.63234659 </i>
    <i name="XCdc">      7.01712608 </i>
    <i name="pawpsdc">    475.86986290 </i>
    <i name="pawaedc">   -477.94920096 </i>
    <i name="eentropy">     -0.00146202 </i>
    <i name="bandstr">     55.11751513 </i>
    <i name="atom">    594.43414228 </i>
    <i name="e_fr_energy">     14.00892707 </i>
    <i name="e_wo_entrp">     14.01038908 </i>
    <i name="e_0_energy">     14.00941441 </i>
   </energy>
  </scstep>
  <scstep>
   <time name="dav">    0.25    0.25</time>
   <time name="total">    0.26    0.26</time>
   <energy>
    <i name="e_fr_energy">     -6.18207048 </i>
    <i name="e_wo_entrp">     -6.17597388 </i>
    <i name="e_0_energy">     -6.18003828 </i>
   </energy>
  </scstep>
  <scstep>
   <time name="dav">    0.27    0.27</time>
   <time name="total">    0.28    0.29</time>
   <energy>
    <i name="e_fr_energy">     -6.45985040 </i>
    <i name="e_wo_entrp">     -6.45352210 </i>
    <i name="e_0_energy">     -6.45774096 </i>
   </energy>
  </scstep>
  <scstep>
   <time name="dav">    0.26    0.26</time>
   <time name="total">    0.27    0.28</time>
   <energy>
    <i name="e_fr_energy">     -6.46060961 </i>
    <i name="e_wo_entrp">     -6.45428355 </i>
    <i name="e_0_energy">     -6.45850093 </i>
   </energy>
  </scstep>
  <scstep>
   <time name="dav">    0.23    0.23</time>
   <time name="total">    0.25    0.26</time>
   <energy>
    <i name="e_fr_energy">     -6.46061328 </i>
    <i name="e_wo_entrp">     -6.45428723 </i>
    <i name="e_0_energy">     -6.45850459 </i>
   </energy>
  </scstep>
  <scstep>
   <time name="dav">    0.27    0.27</time>
   <time name="total">    0.34    0.36</time>
   <energy>
    <i name="e_fr_energy">     -6.70151821 </i>
    <i name="e_wo_entrp">     -6.69833418 </i>
    <i name="e_0_energy">     -6.70045687 </i>
   </energy>
  </scstep>
  <scstep>
   <time name="dav">    0.26    0.26</time>
   <time name="total">    0.33    0.34</time>
   <energy>
    <i name="e_fr_energy">     -6.68164380 </i>
    <i name="e_wo_entrp">     -6.67928221 </i>
    <i name="e_0_energy">     -6.68085660 </i>
   </energy>
  </scstep>
  <scstep>
   <time name="dav">    0.29    0.29</time>
   <time name="total">    0.35    0.36</time>
   <energy>
    <i name="e_fr_energy">     -6.67417779 </i>
    <i name="e_wo_entrp">     -6.67150701 </i>
    <i name="e_0_energy">     -6.67328753 </i>
   </energy>
  </scstep>
  <scstep>
   <time name="dav">    0.30    0.30</time>
   <time name="total">    0.36    0.37</time>
   <energy>
    <i name="e_fr_energy">     -6.67351520 </i>
    <i name="e_wo_entrp">     -6.67103602 </i>
    <i name="e_0_energy">     -6.67268880 </i>
   </energy>
  </scstep>
  <scstep>
   <time name="dav">    0.26    0.27</time>
   <time name="total">    0.33    0.34</time>
   <energy>
    <i name="e_fr_energy">     -6.67332142 </i>
    <i name="e_wo_entrp">     -6.67106148 </i>
    <i name="e_0_energy">     -6.67256811 </i>
   </energy>
  </scstep>
  <scstep>
   <time name="dav">    0.27    0.27</time>
   <time name="total">    0.34    0.34</time>
   <energy>
    <i name="e_fr_energy">     -6.67343281 </i>
    <i name="e_wo_entrp">     -6.67159393 </i>
    <i name="e_0_energy">     -6.67281985 </i>
   </energy>
  </scstep>
  <scstep>
   <time name="dav">    0.18    0.18</time>
   <time name="total">    0.24    0.25</time>
   <energy>
    <i name="e_fr_energy">     -6.67356130 </i>
    <i name="e_wo_entrp">     -6.67171176 </i>
    <i name="e_0_energy">     -6.67294479 </i>
   </energy>
  </scstep>
  <scstep>
   <time name="dav">    0.17    0.17</time>
   <time name="total">    0.21    0.22</time>
   <energy>
    <i name="alphaZ">     58.45084694 </i>
    <i name="ewald">   -584.29755670 </i>
    <i name="hartreedc">    -99.28920711 </i>
    <i name="XCdc">      4.66563370 </i>
    <i name="pawpsdc">    511.13335020 </i>
    <i name="pawaedc">   -515.47192245 </i>
    <i name="eentropy">     -0.00190539 </i>
    <i name="bandstr">     23.70306515 </i>
    <i name="atom">    594.43414228 </i>
    <i name="e_fr_energy">     -6.67355337 </i>
    <i name="e_wo_entrp">     -6.67164798 </i>
    <i name="e_0_energy">     -6.67291824 </i>
   </energy>
  </scstep>
  <parameters_embedded>
   <separator name="dft+d2" >
    <i type="logical" name="LVDW"> F  </i>
   </separator>
  </parameters_embedded>
  <structure>
   <crystal>
    <varray name="basis" >
     <v>      -1.43500000       1.43500000       1.43500000 </v>
     <v>       1.43500000      -1.43500000       1.43500000 </v>
     <v>       1.43500000       1.43500000      -1.43500000 </v>
    </varray>
    <i name="volume">     11.81995150 </i>
    <varray name="rec_basis" >
     <v>       0.00000000       0.34843206       0.34843206 </v>
     <v>       0.34843206       0.00000000       0.34843206 </v>
     <v>       0.34843206       0.34843206       0.00000000 </v>
    </varray>
   </crystal>
   <varray name="positions" >
    <v>       0.00000000       0.00000000       0.00000000 </v>
   </varray>
  </structure>
  <varray name="forces" >
   <v>       0.00000000       0.00000000       0.00000000 </v>
  </varray>
  <varray name="stress" >
   <v>      -4.59704590       0.00000000       0.00000000 </v>
   <v>       0.00000000      -4.59704590       0.00000000 </v>
   <v>       0.00000000       0.00000000      -4.59704590 </v>
  </varray>
  <energy>
   <i name="e_fr_energy">     -6.67355337 </i>
   <i name="e_wo_entrp">     -6.67291824 </i>
   <i name="e_0_energy">     -0.00190539 </i>
  </energy>
  <time name="totalsc">    4.17    4.34</time>
  <eigenvalues>
   <array>
    <dimension dim="1">band</dimension>
    <dimension dim="2">kpoint</dimension>
    <dimension dim="3">spin</dimension>
    <field>eigene</field>
    <field>occ</field>
    <set>
     <set comment="spin 1">
      <set comment="kpoint 1">
       <r>   -1.7813    1.0000 </r>
       <r>    2.2108    1.0000 </r>
       <r>    2.2108    1.0000 </r>
       <r>    2.9725    1.0000 </r>
       <r>    3.4972    1.0000 </r>
       <r>    3.4972    1.0000 </r>
       <r>   26.1427    0.0000 </r>
       <r>   26.1427    0.0000 </r>
       <r>   29.6983    0.0000 </r>
       <r>   31.0165    0.0000 </r>
       <r>   35.4804    0.0000 </r>
      </set>
      <set comment="kpoint 2">
       <r>   -0.3116    1.0000 </r>
       <r>    1.8343    1.0000 </r>
       <r>    2.0995    1.0000 </r>
       <r>    3.4424    1.0000 </r>
       <r>    3.6065    1.0000 </r>
       <r>    3.9869    1.0000 </r>
       <r>   20.7134    0.0000 </r>
       <r>   23.8365    0.0000 </r>
       <r>   26.0633    0.0000 </r>
       <r>   30.9915    0.0000 </r>
       <r>   34.6529    0.0000 </r>
      </set>
      <set comment="kpoint 3">
       <r>    0.3942    1.0000 </r>
       <r>    1.5101    1.0000 </r>
       <r>    3.1255    1.0000 </r>
       <r>    3.5806    1.0000 </r>
       <r>    3.6948    1.0000 </r>
       <r>    5.5516    0.3967 </r>
       <r>   15.3244    0.0000 </r>
       <r>   22.2253    0.0000 </r>
       <r>   23.8714    0.0000 </r>
       <r>   30.2078    0.0000 </r>
       <r>   33.9472    0.0000 </r>
      </set>
      <set comment="kpoint 4">
       <r>    0.3303    1.0000 </r>
       <r>    1.3862    1.0000 </r>
       <r>    3.6396    1.0000 </r>
       <r>    3.7267    1.0000 </r>
       <r>    3.9859    1.0000 </r>
       <r>    7.2472    0.0000 </r>
       <r>   12.1736    0.0000 </r>
       <r>   21.6480    0.0000 </r>
       <r>   23.0609    0.0000 </r>
       <r>   29.9200    0.0000 </r>
       <r>   33.7868    0.0000 </r>
      </set>
      <set comment="kpoint 5">
       <r>   -2.3756    1.0000 </r>
       <r>    2.3975    1.0000 </r>
       <r>    2.3977    1.0000 </r>
       <r>    2.4750    1.0000 </r>
       <r>    3.4281    1.0000 </r>
       <r>    3.6122    1.0000 </r>
       <r>   28.2310    0.0000 </r>
       <r>   29.5201    0.0000 </r>
       <r>   29.5201    0.0000 </r>
       <r>   32.4249    0.0000 </r>
       <r>   34.2743    0.0000 </r>
      </set>
      <set comment="kpoint 6">
       <r>    0.8665    1.0000 </r>
       <r>    1.6193    1.0000 </r>
       <r>    1.9015    1.0000 </r>
       <r>    3.5171    1.0000 </r>
       <r>    3.7326    1.0000 </r>
       <r>    5.7230   -0.0230 </r>
       <r>   18.2405    0.0000 </r>
       <r>   19.1183    0.0000 </r>
       <r>   22.9841    0.0000 </r>
       <r>   32.9310    0.0000 </r>
       <r>   36.1728    0.0000 </r>
      </set>
      <set comment="kpoint 7">
       <r>    0.9170    1.0000 </r>
       <r>    1.4639    1.0000 </r>
       <r>    2.5943    1.0000 </r>
       <r>    3.6513    1.0000 </r>
       <r>    3.8342    1.0000 </r>
       <r>    8.3865    0.0000 </r>
       <r>   13.6834    0.0000 </r>
       <r>   17.5771    0.0000 </r>
       <r>   21.7492    0.0000 </r>
       <r>   33.1381    0.0000 </r>
       <r>   37.4109    0.0000 </r>
      </set>
      <set comment="kpoint 8">
       <r>   -1.2367    1.0000 </r>
       <r>    2.1516    1.0000 </r>
       <r>    2.3647    1.0000 </r>
       <r>    3.0685    1.0000 </r>
       <r>    3.2111    1.0000 </r>
       <r>    3.7073    1.0000 </r>
       <r>   23.5565    0.0000 </r>
       <r>   27.1052    0.0000 </r>
       <r>   27.6409    0.0000 </r>
       <r>   31.7594    0.0000 </r>
       <r>   31.7707    0.0000 </r>
      </set>
      <set comment="kpoint 9">
       <r>    1.1405    1.0000 </r>
       <r>    1.9066    1.0000 </r>
       <r>    1.9067    1.0000 </r>
       <r>    3.7791    1.0000 </r>
       <r>    3.7791    1.0000 </r>
       <r>   11.9201    0.0000 </r>
       <r>   11.9202    0.0000 </r>
       <r>   14.3928    0.0000 </r>
       <r>   21.2623    0.0000 </r>
       <r>   35.6078    0.0000 </r>
       <r>   35.6078    0.0000 </r>
      </set>
      <set comment="kpoint 10">
       <r>    0.0998    1.0000 </r>
       <r>    1.7838    1.0000 </r>
       <r>    2.6320    1.0000 </r>
       <r>    3.4287    1.0000 </r>
       <r>    3.9692    1.0000 </r>
       <r>    4.0275    1.0000 </r>
       <r>   17.8430    0.0000 </r>
       <r>   24.8174    0.0000 </r>
       <r>   25.5616    0.0000 </r>
       <r>   29.8250    0.0000 </r>
       <r>   31.8252    0.0000 </r>
      </set>
      <set comment="kpoint 11">
       <r>    0.0610    1.0000 </r>
       <r>    1.9865    1.0000 </r>
       <r>    2.1967    1.0000 </r>
       <r>    3.1040    1.0000 </r>
       <r>    3.7541    1.0000 </r>
       <r>    4.1832    1.0000 </r>
       <r>   20.7651    0.0000 </r>
       <r>   21.8206    0.0000 </r>
       <r>   28.2011    0.0000 </r>
       <r>   28.5799    0.0000 </r>
       <r>   31.9912    0.0000 </r>
      </set>
      <set comment="kpoint 12">
       <r>    0.2382    1.0000 </r>
       <r>    1.5332    1.0000 </r>
       <r>    3.2425    1.0000 </r>
       <r>    3.5672    1.0000 </r>
       <r>    4.7827    1.0000 </r>
       <r>    5.8768   -0.0165 </r>
       <r>   13.1073    0.0000 </r>
       <r>   23.5197    0.0000 </r>
       <r>   24.0974    0.0000 </r>
       <r>   29.0175    0.0000 </r>
       <r>   31.9230    0.0000 </r>
      </set>
      <set comment="kpoint 13">
       <r>    0.7055    1.0000 </r>
       <r>    1.7120    1.0000 </r>
       <r>    2.3728    1.0000 </r>
       <r>    3.3916    1.0000 </r>
       <r>    4.1530    1.0000 </r>
       <r>    6.1361   -0.0001 </r>
       <r>   15.7067    0.0000 </r>
       <r>   19.6272    0.0000 </r>
       <r>   26.2519    0.0000 </r>
       <r>   29.0273    0.0000 </r>
       <r>   32.6151    0.0000 </r>
      </set>
      <set comment="kpoint 14">
       <r>    0.6219    1.0000 </r>
       <r>    1.6810    1.0000 </r>
       <r>    2.5278    1.0000 </r>
       <r>    3.4889    1.0000 </r>
       <r>    4.4887    1.0000 </r>
       <r>    8.3577    0.0000 </r>
       <r>   12.3100    0.0000 </r>
       <r>   18.9684    0.0000 </r>
       <r>   25.4645    0.0000 </r>
       <r>   29.2167    0.0000 </r>
       <r>   33.7556    0.0000 </r>
      </set>
      <set comment="kpoint 15">
       <r>    1.2554    1.0000 </r>
       <r>    1.4828    1.0000 </r>
       <r>    2.0067    1.0000 </r>
       <r>    3.6787    1.0000 </r>
       <r>    4.1197    1.0000 </r>
       <r>    9.4831    0.0000 </r>
       <r>   13.8222    0.0000 </r>
       <r>   15.2094    0.0000 </r>
       <r>   26.5466    0.0000 </r>
       <r>   29.5652    0.0000 </r>
       <r>   31.6750    0.0000 </r>
      </set>
      <set comment="kpoint 16">
       <r>    1.4651    1.0000 </r>
       <r>    1.4652    1.0000 </r>
       <r>    1.8912    1.0000 </r>
       <r>    3.7064    1.0000 </r>
       <r>    3.7064    1.0000 </r>
       <r>    8.3014    0.0000 </r>
       <r>   16.6390    0.0000 </r>
       <r>   16.6391    0.0000 </r>
       <r>   18.1165    0.0000 </r>
       <r>   37.8287    0.0000 </r>
       <r>   39.8867    0.0000 </r>
      </set>
      <set comment="kpoint 17">
       <r>    1.4216    1.0000 </r>
       <r>    1.4373    1.0000 </r>
       <r>    2.1688    1.0000 </r>
       <r>    3.7412    1.0000 </r>
       <r>    3.7505    1.0000 </r>
       <r>   11.2280    0.0000 </r>
       <r>   12.9921    0.0000 </r>
       <r>   16.0943    0.0000 </r>
       <r>   17.1924    0.0000 </r>
       <r>   38.6142    0.0000 </r>
       <r>   42.0138    0.0000 </r>
      </set>
      <set comment="kpoint 18">
       <r>   -0.2667    1.0000 </r>
       <r>    2.4978    1.0000 </r>
       <r>    2.5681    1.0000 </r>
       <r>    2.5682    1.0000 </r>
       <r>    3.0805    1.0000 </r>
       <r>    4.1098    1.0000 </r>
       <r>   23.6774    0.0000 </r>
       <r>   24.5544    0.0000 </r>
       <r>   24.5546    0.0000 </r>
       <r>   26.8354    0.0000 </r>
       <r>   36.1312    0.0000 </r>
      </set>
      <set comment="kpoint 19">
       <r>    0.7365    1.0000 </r>
       <r>    1.8322    1.0000 </r>
       <r>    2.4404    1.0000 </r>
       <r>    3.0691    1.0000 </r>
       <r>    3.9175    1.0000 </r>
       <r>    5.1863    1.0184 </r>
       <r>   18.6864    0.0000 </r>
       <r>   22.0609    0.0000 </r>
       <r>   23.2859    0.0000 </r>
       <r>   27.2444    0.0000 </r>
       <r>   34.6687    0.0000 </r>
      </set>
      <set comment="kpoint 20">
       <r>    0.7186    1.0000 </r>
       <r>    1.8479    1.0000 </r>
       <r>    2.2576    1.0000 </r>
       <r>    3.2693    1.0000 </r>
       <r>    4.7083    1.0000 </r>
       <r>    7.9188    0.0000 </r>
       <r>   13.6788    0.0000 </r>
       <r>   20.5624    0.0000 </r>
       <r>   22.4753    0.0000 </r>
       <r>   29.6470    0.0000 </r>
       <r>   33.7375    0.0000 </r>
      </set>
      <set comment="kpoint 21">
       <r>    1.1024    1.0000 </r>
       <r>    1.2333    1.0000 </r>
       <r>    2.5313    1.0000 </r>
       <r>    3.4458    1.0000 </r>
       <r>    4.3226    1.0000 </r>
       <r>    7.7328    0.0000 </r>
       <r>   16.5840    0.0000 </r>
       <r>   17.2898    0.0000 </r>
       <r>   24.5680    0.0000 </r>
       <r>   26.2684    0.0000 </r>
       <r>   33.5067    0.0000 </r>
      </set>
      <set comment="kpoint 22">
       <r>    0.9245    1.0000 </r>
       <r>    1.3017    1.0000 </r>
       <r>    2.3607    1.0000 </r>
       <r>    3.7391    1.0000 </r>
       <r>    4.5398    1.0000 </r>
       <r>   10.7855    0.0000 </r>
       <r>   12.8692    0.0000 </r>
       <r>   16.3172    0.0000 </r>
       <r>   24.6383    0.0000 </r>
       <r>   27.7356    0.0000 </r>
       <r>   31.2551    0.0000 </r>
      </set>
      <set comment="kpoint 23">
       <r>    0.9179    1.0000 </r>
       <r>    1.1691    1.0000 </r>
       <r>    3.3190    1.0000 </r>
       <r>    3.3192    1.0000 </r>
       <r>    3.9453    1.0000 </r>
       <r>    7.1121    0.0000 </r>
       <r>   19.2641    0.0000 </r>
       <r>   19.2642    0.0000 </r>
       <r>   21.1745    0.0000 </r>
       <r>   23.5509    0.0000 </r>
       <r>   34.8424    0.0000 </r>
      </set>
      <set comment="kpoint 24">
       <r>    0.6567    1.0000 </r>
       <r>    0.7932    1.0000 </r>
       <r>    3.4408    1.0000 </r>
       <r>    3.7213    1.0000 </r>
       <r>    4.6007    1.0000 </r>
       <r>   10.2985    0.0000 </r>
       <r>   14.9586    0.0000 </r>
       <r>   17.5671    0.0000 </r>
       <r>   21.4023    0.0000 </r>
       <r>   24.3721    0.0000 </r>
       <r>   30.3915    0.0000 </r>
      </set>
      <set comment="kpoint 25">
       <r>    0.5119    1.0000 </r>
       <r>    0.5119    1.0000 </r>
       <r>    3.5509    1.0000 </r>
       <r>    4.4656    1.0000 </r>
       <r>    4.4658    1.0000 </r>
       <r>   13.6652    0.0000 </r>
       <r>   13.6653    0.0000 </r>
       <r>   14.8190    0.0000 </r>
       <r>   22.8561    0.0000 </r>
       <r>   22.8561    0.0000 </r>
       <r>   27.9826    0.0000 </r>
      </set>
      <set comment="kpoint 26">
       <r>    0.2442    1.0000 </r>
       <r>    0.2602    1.0000 </r>
       <r>    4.4277    1.0000 </r>
       <r>    4.4280    1.0000 </r>
       <r>    4.5657    1.0000 </r>
       <r>   13.1405    0.0000 </r>
       <r>   15.6888    0.0000 </r>
       <r>   15.6888    0.0000 </r>
       <r>   20.1917    0.0000 </r>
       <r>   21.4690    0.0000 </r>
       <r>   26.4612    0.0000 </r>
      </set>
     </set>
     <set comment="spin 2">
      <set comment="kpoint 1">
       <r>   -1.7052    1.0000 </r>
       <r>    5.4527    0.7913 </r>
       <r>    5.4527    0.7912 </r>
       <r>    6.3307    0.0000 </r>
       <r>    7.8935    0.0000 </r>
       <r>    7.8935    0.0000 </r>
       <r>   26.6952    0.0000 </r>
       <r>   26.6953    0.0000 </r>
       <r>   30.5291    0.0000 </r>
       <r>   31.0548    0.0000 </r>
       <r>   36.0127    0.0000 </r>
      </set>
      <set comment="kpoint 2">
       <r>   -0.0376    1.0000 </r>
       <r>    4.9558    1.0002 </r>
       <r>    5.1149    1.0066 </r>
       <r>    7.3567    0.0000 </r>
       <r>    7.7090    0.0000 </r>
       <r>    8.0552    0.0000 </r>
       <r>   21.7790    0.0000 </r>
       <r>   24.4772    0.0000 </r>
       <r>   27.1187    0.0000 </r>
       <r>   31.1425    0.0000 </r>
       <r>   35.9521    0.0000 </r>
      </set>
      <set comment="kpoint 3">
       <r>    1.9154    1.0000 </r>
       <r>    4.5257    1.0000 </r>
       <r>    5.0387    1.0015 </r>
       <r>    7.7755    0.0000 </r>
       <r>    8.2104    0.0000 </r>
       <r>    8.5898    0.0000 </r>
       <r>   16.7966    0.0000 </r>
       <r>   22.7419    0.0000 </r>
       <r>   24.7178    0.0000 </r>
       <r>   30.9549    0.0000 </r>
       <r>   35.3046    0.0000 </r>
      </set>
      <set comment="kpoint 4">
       <r>    2.5961    1.0000 </r>
       <r>    4.3623    1.0000 </r>
       <r>    5.5731    0.3104 </r>
       <r>    7.8424    0.0000 </r>
       <r>    8.2741    0.0000 </r>
       <r>    9.3585    0.0000 </r>
       <r>   14.2207    0.0000 </r>
       <r>   22.0879    0.0000 </r>
       <r>   23.7967    0.0000 </r>
       <r>   30.8364    0.0000 </r>
       <r>   35.2574    0.0000 </r>
      </set>
      <set comment="kpoint 5">
       <r>   -2.3147    1.0000 </r>
       <r>    5.6914    0.0044 </r>
       <r>    5.6917    0.0042 </r>
       <r>    5.7994   -0.0330 </r>
       <r>    7.8078    0.0000 </r>
       <r>    8.0734    0.0000 </r>
       <r>   28.2738    0.0000 </r>
       <r>   29.5054    0.0000 </r>
       <r>   29.5055    0.0000 </r>
       <r>   33.1095    0.0000 </r>
       <r>   35.5709    0.0000 </r>
      </set>
      <set comment="kpoint 6">
       <r>    1.7885    1.0000 </r>
       <r>    4.5474    1.0000 </r>
       <r>    4.6263    1.0000 </r>
       <r>    7.7830    0.0000 </r>
       <r>    8.1756    0.0000 </r>
       <r>    8.7735    0.0000 </r>
       <r>   19.4401    0.0000 </r>
       <r>   20.0625    0.0000 </r>
       <r>   23.7987    0.0000 </r>
       <r>   33.0498    0.0000 </r>
       <r>   37.0467    0.0000 </r>
      </set>
      <set comment="kpoint 7">
       <r>    3.1439    1.0000 </r>
       <r>    4.2866    1.0000 </r>
       <r>    4.6926    1.0000 </r>
       <r>    7.9142    0.0000 </r>
       <r>    8.2446    0.0000 </r>
       <r>   10.5457    0.0000 </r>
       <r>   15.2390    0.0000 </r>
       <r>   18.5507    0.0000 </r>
       <r>   22.4988    0.0000 </r>
       <r>   33.5894    0.0000 </r>
       <r>   37.8755    0.0000 </r>
      </set>
      <set comment="kpoint 8">
       <r>   -1.1198    1.0000 </r>
       <r>    5.3666    0.9905 </r>
       <r>    5.5606    0.3597 </r>
       <r>    6.4594    0.0000 </r>
       <r>    7.4267    0.0000 </r>
       <r>    8.1779    0.0000 </r>
       <r>   24.4511    0.0000 </r>
       <r>   27.3868    0.0000 </r>
       <r>   28.5164    0.0000 </r>
       <r>   32.4728    0.0000 </r>
       <r>   32.7949    0.0000 </r>
      </set>
      <set comment="kpoint 9">
       <r>    3.7898    1.0000 </r>
       <r>    4.3182    1.0000 </r>
       <r>    4.3183    1.0000 </r>
       <r>    8.0998    0.0000 </r>
       <r>    8.0999    0.0000 </r>
       <r>   13.4992    0.0000 </r>
       <r>   13.4994    0.0000 </r>
       <r>   15.6475    0.0000 </r>
       <r>   22.0653    0.0000 </r>
       <r>   35.9481    0.0000 </r>
       <r>   35.9483    0.0000 </r>
      </set>
      <set comment="kpoint 10">
       <r>    0.8679    1.0000 </r>
       <r>    4.8927    1.0000 </r>
       <r>    5.2304    1.0284 </r>
       <r>    7.4265    0.0000 </r>
       <r>    7.5658    0.0000 </r>
       <r>    8.2895    0.0000 </r>
       <r>   19.1378    0.0000 </r>
       <r>   24.9926    0.0000 </r>
       <r>   26.6176    0.0000 </r>
       <r>   30.9412    0.0000 </r>
       <r>   32.9074    0.0000 </r>
      </set>
      <set comment="kpoint 11">
       <r>    0.4706    1.0000 </r>
       <r>    5.1742    1.0159 </r>
       <r>    5.2359    1.0296 </r>
       <r>    7.0958    0.0000 </r>
       <r>    7.2996    0.0000 </r>
       <r>    8.3882    0.0000 </r>
       <r>   21.9286    0.0000 </r>
       <r>   22.6937    0.0000 </r>
       <r>   28.8813    0.0000 </r>
       <r>   29.1980    0.0000 </r>
       <r>   32.9224    0.0000 </r>
      </set>
      <set comment="kpoint 12">
       <r>    2.3360    1.0000 </r>
       <r>    4.5760    1.0000 </r>
       <r>    5.5396    0.4464 </r>
       <r>    7.6261    0.0000 </r>
       <r>    8.4807    0.0000 </r>
       <r>    8.5415    0.0000 </r>
       <r>   14.9592    0.0000 </r>
       <r>   23.5783    0.0000 </r>
       <r>   24.9353    0.0000 </r>
       <r>   30.3438    0.0000 </r>
       <r>   33.3320    0.0000 </r>
      </set>
      <set comment="kpoint 13">
       <r>    2.3399    1.0000 </r>
       <r>    4.7038    1.0000 </r>
       <r>    5.0208    1.0010 </r>
       <r>    7.2966    0.0000 </r>
       <r>    8.1174    0.0000 </r>
       <r>    9.0789    0.0000 </r>
       <r>   17.1222    0.0000 </r>
       <r>   20.5772    0.0000 </r>
       <r>   26.6900    0.0000 </r>
       <r>   30.0282    0.0000 </r>
       <r>   33.5108    0.0000 </r>
      </set>
      <set comment="kpoint 14">
       <r>    3.0362    1.0000 </r>
       <r>    4.6798    1.0000 </r>
       <r>    5.0071    1.0007 </r>
       <r>    7.4654    0.0000 </r>
       <r>    8.3107    0.0000 </r>
       <r>   10.2719    0.0000 </r>
       <r>   14.2464    0.0000 </r>
       <r>   19.8706    0.0000 </r>
       <r>   25.8191    0.0000 </r>
       <r>   30.4877    0.0000 </r>
       <r>   34.2746    0.0000 </r>
      </set>
      <set comment="kpoint 15">
       <r>    3.6840    1.0000 </r>
       <r>    4.3089    1.0000 </r>
       <r>    4.7400    1.0000 </r>
       <r>    7.5634    0.0000 </r>
       <r>    8.0370    0.0000 </r>
       <r>   11.4730    0.0000 </r>
       <r>   15.3627    0.0000 </r>
       <r>   16.3533    0.0000 </r>
       <r>   27.1985    0.0000 </r>
       <r>   30.2808    0.0000 </r>
       <r>   32.4456    0.0000 </r>
      </set>
      <set comment="kpoint 16">
       <r>    3.3770    1.0000 </r>
       <r>    4.1917    1.0000 </r>
       <r>    4.1917    1.0000 </r>
       <r>    8.1833    0.0000 </r>
       <r>    8.1833    0.0000 </r>
       <r>   10.6251    0.0000 </r>
       <r>   17.8236    0.0000 </r>
       <r>   17.8236    0.0000 </r>
       <r>   18.8927    0.0000 </r>
       <r>   37.3567    0.0000 </r>
       <r>   40.5671    0.0000 </r>
      </set>
      <set comment="kpoint 17">
       <r>    3.8199    1.0000 </r>
       <r>    4.0851    1.0000 </r>
       <r>    4.3673    1.0000 </r>
       <r>    8.2165    0.0000 </r>
       <r>    8.3097    0.0000 </r>
       <r>   12.7954    0.0000 </r>
       <r>   14.5371    0.0000 </r>
       <r>   17.2649    0.0000 </r>
       <r>   18.0024    0.0000 </r>
       <r>   38.5965    0.0000 </r>
       <r>   42.0696    0.0000 </r>
      </set>
      <set comment="kpoint 18">
       <r>   -0.0126    1.0000 </r>
       <r>    5.7649   -0.0353 </r>
       <r>    5.7651   -0.0353 </r>
       <r>    6.4718    0.0000 </r>
       <r>    6.4918    0.0000 </r>
       <r>    8.4701    0.0000 </r>
       <r>   24.6449    0.0000 </r>
       <r>   25.6438    0.0000 </r>
       <r>   25.6440    0.0000 </r>
       <r>   27.1834    0.0000 </r>
       <r>   36.3875    0.0000 </r>
      </set>
      <set comment="kpoint 19">
       <r>    1.7735    1.0000 </r>
       <r>    5.1846    1.0180 </r>
       <r>    5.5944    0.2317 </r>
       <r>    6.5487    0.0000 </r>
       <r>    7.4348    0.0000 </r>
       <r>    8.7721    0.0000 </r>
       <r>   19.9267    0.0000 </r>
       <r>   23.0888    0.0000 </r>
       <r>   24.1740    0.0000 </r>
       <r>   27.9238    0.0000 </r>
       <r>   35.7776    0.0000 </r>
      </set>
      <set comment="kpoint 20">
       <r>    3.1273    1.0000 </r>
       <r>    4.6525    1.0000 </r>
       <r>    5.3654    0.9920 </r>
       <r>    6.9249    0.0000 </r>
       <r>    8.3900    0.0000 </r>
       <r>   10.0187    0.0000 </r>
       <r>   15.2891    0.0000 </r>
       <r>   21.4195    0.0000 </r>
       <r>   23.3596    0.0000 </r>
       <r>   30.3955    0.0000 </r>
       <r>   34.9333    0.0000 </r>
      </set>
      <set comment="kpoint 21">
       <r>    3.1826    1.0000 </r>
       <r>    4.4899    1.0000 </r>
       <r>    5.6609    0.0511 </r>
       <r>    6.9007    0.0000 </r>
       <r>    7.9752    0.0000 </r>
       <r>   10.0440    0.0000 </r>
       <r>   17.9540    0.0000 </r>
       <r>   18.2642    0.0000 </r>
       <r>   25.6977    0.0000 </r>
       <r>   26.9309    0.0000 </r>
       <r>   34.5954    0.0000 </r>
      </set>
      <set comment="kpoint 22">
       <r>    3.8433    1.0000 </r>
       <r>    4.1790    1.0000 </r>
       <r>    5.3881    0.9579 </r>
       <r>    7.2706    0.0000 </r>
       <r>    8.2012    0.0000 </r>
       <r>   12.3349    0.0000 </r>
       <r>   14.4383    0.0000 </r>
       <r>   17.3540    0.0000 </r>
       <r>   25.6409    0.0000 </r>
       <r>   28.6425    0.0000 </r>
       <r>   32.1938    0.0000 </r>
      </set>
      <set comment="kpoint 23">
       <r>    2.9125    1.0000 </r>
       <r>    4.6619    1.0000 </r>
       <r>    6.5395    0.0000 </r>
       <r>    6.5398    0.0000 </r>
       <r>    7.4963    0.0000 </r>
       <r>    9.5494    0.0000 </r>
       <r>   20.1492    0.0000 </r>
       <r>   20.1495    0.0000 </r>
       <r>   22.8927    0.0000 </r>
       <r>   24.3401    0.0000 </r>
       <r>   36.1638    0.0000 </r>
      </set>
      <set comment="kpoint 24">
       <r>    3.5586    1.0000 </r>
       <r>    3.9605    1.0000 </r>
       <r>    6.7246    0.0000 </r>
       <r>    7.0363    0.0000 </r>
       <r>    8.2614    0.0000 </r>
       <r>   11.7444    0.0000 </r>
       <r>   16.0499    0.0000 </r>
       <r>   18.2417    0.0000 </r>
       <r>   23.0056    0.0000 </r>
       <r>   25.5030    0.0000 </r>
       <r>   31.6026    0.0000 </r>
      </set>
      <set comment="kpoint 25">
       <r>    3.6435    1.0000 </r>
       <r>    3.6435    1.0000 </r>
       <r>    6.7916    0.0000 </r>
       <r>    8.0490    0.0000 </r>
       <r>    8.0495    0.0000 </r>
       <r>   14.6774    0.0000 </r>
       <r>   14.6776    0.0000 </r>
       <r>   15.5913    0.0000 </r>
       <r>   24.3262    0.0000 </r>
       <r>   24.3263    0.0000 </r>
       <r>   29.1225    0.0000 </r>
      </set>
      <set comment="kpoint 26">
       <r>    3.3761    1.0000 </r>
       <r>    3.4677    1.0000 </r>
       <r>    7.9835    0.0000 </r>
       <r>    7.9840    0.0000 </r>
       <r>    8.2301    0.0000 </r>
       <r>   13.8601    0.0000 </r>
       <r>   16.0609    0.0000 </r>
       <r>   16.0614    0.0000 </r>
       <r>   22.3169    0.0000 </r>
       <r>   23.1956    0.0000 </r>
       <r>   27.6835    0.0000 </r>
      </set>
     </set>
    </set>
   </array>
  </eigenvalues>
  <separator name="orbital magnetization" >
   <v name="MAGDIPOLOUT">      0.00000000      0.00000000      0.00000000</v>
  </separator>
  <dos>
   <i name="efermi">      5.52693316 </i>
   <total>
    <array>
     <dimension dim="1">gridpoints</dimension>
     <dimension dim="2">spin</dimension>
     <field>energy</field>
     <field>total</field>
     <field>integrated</field>
     <set>
      <set comment="spin 1">
       <r>    -4.5979     0.0000     0.0000 </r>
       <r>    -4.4349     0.0000     0.0000 </r>
       <r>    -4.2720     0.0000     0.0000 </r>
       <r>    -4.1090     0.0000     0.0000 </r>
       <r>    -3.9460     0.0000     0.0000 </r>
       <r>    -3.7831     0.0000     0.0000 </r>
       <r>    -3.6201     0.0000     0.0000 </r>
       <r>    -3.4571     0.0000     0.0000 </r>
       <r>    -3.2942     0.0000     0.0000 </r>
       <r>    -3.1312     0.0000     0.0000 </r>
       <r>    -2.9682     0.0000     0.0000 </r>
       <r>    -2.8053    -0.0003    -0.0001 </r>
       <r>    -2.6423    -0.0021    -0.0004 </r>
       <r>    -2.4794     0.0111     0.0014 </r>
       <r>    -2.3164     0.0445     0.0087 </r>
       <r>    -2.1534     0.0200     0.0119 </r>
       <r>    -1.9905    -0.0033     0.0114 </r>
       <r>    -1.8275     0.0318     0.0166 </r>
       <r>    -1.6645     0.0563     0.0257 </r>
       <r>    -1.5016     0.0030     0.0262 </r>
       <r>    -1.3386     0.0430     0.0332 </r>
       <r>    -1.1756     0.1782     0.0623 </r>
       <r>    -1.0127     0.0828     0.0758 </r>
       <r>    -0.8497    -0.0070     0.0747 </r>
       <r>    -0.6867    -0.0063     0.0736 </r>
       <r>    -0.5238    -0.0076     0.0724 </r>
       <r>    -0.3608     0.1054     0.0895 </r>
       <r>    -0.1978     0.2021     0.1225 </r>
       <r>    -0.0349     0.1130     0.1409 </r>
       <r>     0.1281     0.3745     0.2019 </r>
       <r>     0.2911     0.5285     0.2881 </r>
       <r>     0.4540     0.4154     0.3558 </r>
       <r>     0.6170     0.6083     0.4549 </r>
       <r>     0.7800     1.2850     0.6643 </r>
       <r>     0.9429     1.1958     0.8592 </r>
       <r>     1.1059     0.6435     0.9640 </r>
       <r>     1.2689     0.6343     1.0674 </r>
       <r>     1.4318     1.1104     1.2483 </r>
       <r>     1.5948     1.3839     1.4739 </r>
       <r>     1.7578     1.2428     1.6764 </r>
       <r>     1.9207     1.3566     1.8975 </r>
       <r>     2.0837     1.0347     2.0661 </r>
       <r>     2.2467     1.0181     2.2320 </r>
       <r>     2.4096     1.3550     2.4528 </r>
       <r>     2.5726     1.4540     2.6898 </r>
       <r>     2.7356     0.7688     2.8151 </r>
       <r>     2.8985     0.0524     2.8236 </r>
       <r>     3.0615     0.4873     2.9030 </r>
       <r>     3.2245     1.0511     3.0743 </r>
       <r>     3.3874     1.3412     3.2929 </r>
       <r>     3.5504     2.1081     3.6364 </r>
       <r>     3.7134     2.7491     4.0844 </r>
       <r>     3.8763     2.2489     4.4509 </r>
       <r>     4.0393     1.2711     4.6581 </r>
       <r>     4.2023     1.0439     4.8282 </r>
       <r>     4.3652     0.6148     4.9284 </r>
       <r>     4.5282     0.6697     5.0375 </r>
       <r>     4.6911     0.7187     5.1546 </r>
       <r>     4.8541     0.3900     5.2182 </r>
       <r>     5.0171     0.0712     5.2298 </r>
       <r>     5.1800     0.1158     5.2487 </r>
       <r>     5.3430     0.1364     5.2709 </r>
       <r>     5.5060     0.0995     5.2871 </r>
       <r>     5.6689     0.2506     5.3279 </r>
       <r>     5.8319     0.2947     5.3760 </r>
       <r>     5.9949     0.2419     5.4154 </r>
       <r>     6.1578     0.3423     5.4712 </r>
       <r>     6.3208     0.2347     5.5094 </r>
       <r>     6.4838    -0.0001     5.5094 </r>
       <r>     6.6467    -0.0094     5.5079 </r>
       <r>     6.8097    -0.0029     5.5074 </r>
       <r>     6.9727     0.0008     5.5075 </r>
       <r>     7.1356     0.0591     5.5172 </r>
       <r>     7.2986     0.1165     5.5361 </r>
       <r>     7.4616     0.0371     5.5422 </r>
       <r>     7.6245     0.0292     5.5470 </r>
       <r>     7.7875     0.1993     5.5794 </r>
       <r>     7.9505     0.2488     5.6200 </r>
       <r>     8.1134     0.0812     5.6332 </r>
       <r>     8.2764     0.1764     5.6620 </r>
       <r>     8.4394     0.5828     5.7570 </r>
       <r>     8.6023     0.2519     5.7980 </r>
       <r>     8.7653    -0.0223     5.7944 </r>
       <r>     8.9283    -0.0084     5.7930 </r>
       <r>     9.0912    -0.0028     5.7925 </r>
       <r>     9.2542    -0.0073     5.7914 </r>
       <r>     9.4172     0.0781     5.8041 </r>
       <r>     9.5801     0.1797     5.8334 </r>
       <r>     9.7431     0.0496     5.8415 </r>
       <r>     9.9061    -0.0109     5.8397 </r>
       <r>    10.0690    -0.0088     5.8382 </r>
       <r>    10.2320     0.0774     5.8508 </r>
       <r>    10.3950     0.1772     5.8797 </r>
       <r>    10.5579     0.0430     5.8867 </r>
       <r>    10.7209     0.0708     5.8983 </r>
       <r>    10.8839     0.1755     5.9269 </r>
       <r>    11.0468     0.0494     5.9349 </r>
       <r>    11.2098     0.0543     5.9438 </r>
       <r>    11.3727     0.0768     5.9563 </r>
       <r>    11.5357     0.0064     5.9573 </r>
       <r>    11.6987    -0.0081     5.9560 </r>
       <r>    11.8616     0.0523     5.9645 </r>
       <r>    12.0246     0.1179     5.9838 </r>
       <r>    12.1876     0.1361     6.0059 </r>
       <r>    12.3505     0.2294     6.0433 </r>
       <r>    12.5135     0.0994     6.0595 </r>
       <r>    12.6765    -0.0128     6.0574 </r>
       <r>    12.8394     0.1064     6.0748 </r>
       <r>    13.0024     0.2880     6.1217 </r>
       <r>    13.1654     0.3069     6.1717 </r>
       <r>    13.3283     0.0935     6.1870 </r>
       <r>    13.4913    -0.0162     6.1843 </r>
       <r>    13.6543     0.4386     6.2558 </r>
       <r>    13.8172     0.7275     6.3743 </r>
       <r>    13.9802     0.2203     6.4103 </r>
       <r>    14.1432    -0.0188     6.4072 </r>
       <r>    14.3061     0.0108     6.4090 </r>
       <r>    14.4691     0.0579     6.4184 </r>
       <r>    14.6321     0.0168     6.4211 </r>
       <r>    14.7950     0.0432     6.4282 </r>
       <r>    14.9580     0.1824     6.4579 </r>
       <r>    15.1210     0.2022     6.4909 </r>
       <r>    15.2839     0.2862     6.5375 </r>
       <r>    15.4469     0.2135     6.5723 </r>
       <r>    15.6099     0.1544     6.5974 </r>
       <r>    15.7728     0.4369     6.6686 </r>
       <r>    15.9358     0.1873     6.6991 </r>
       <r>    16.0988     0.0475     6.7069 </r>
       <r>    16.2617     0.1433     6.7302 </r>
       <r>    16.4247     0.1856     6.7605 </r>
       <r>    16.5877     0.2452     6.8004 </r>
       <r>    16.7506     0.2466     6.8406 </r>
       <r>    16.9136     0.0235     6.8445 </r>
       <r>    17.0766    -0.0002     6.8444 </r>
       <r>    17.2395     0.1632     6.8710 </r>
       <r>    17.4025     0.2369     6.9096 </r>
       <r>    17.5655     0.4302     6.9797 </r>
       <r>    17.7284     0.4716     7.0566 </r>
       <r>    17.8914     0.2015     7.0894 </r>
       <r>    18.0544     0.1039     7.1064 </r>
       <r>    18.2173     0.1727     7.1345 </r>
       <r>    18.3803     0.1655     7.1615 </r>
       <r>    18.5432     0.0325     7.1668 </r>
       <r>    18.7062     0.1400     7.1896 </r>
       <r>    18.8692     0.1615     7.2159 </r>
       <r>    19.0321     0.2356     7.2543 </r>
       <r>    19.1951     0.2916     7.3018 </r>
       <r>    19.3581     0.1338     7.3236 </r>
       <r>    19.5210     0.1002     7.3400 </r>
       <r>    19.6840     0.3482     7.3967 </r>
       <r>    19.8470     0.1720     7.4247 </r>
       <r>    20.0099    -0.0125     7.4227 </r>
       <r>    20.1729     0.0226     7.4264 </r>
       <r>    20.3359     0.0275     7.4309 </r>
       <r>    20.4988     0.0706     7.4424 </r>
       <r>    20.6618     0.3142     7.4936 </r>
       <r>    20.8248     0.3997     7.5587 </r>
       <r>    20.9877     0.1095     7.5765 </r>
       <r>    21.1507     0.0162     7.5792 </r>
       <r>    21.3137     0.1490     7.6035 </r>
       <r>    21.4766     0.2347     7.6417 </r>
       <r>    21.6396     0.2466     7.6819 </r>
       <r>    21.8026     0.5346     7.7690 </r>
       <r>    21.9655     0.3823     7.8313 </r>
       <r>    22.1285     0.2266     7.8682 </r>
       <r>    22.2915     0.2437     7.9080 </r>
       <r>    22.4544     0.1908     7.9391 </r>
       <r>    22.6174     0.1394     7.9618 </r>
       <r>    22.7804     0.0530     7.9704 </r>
       <r>    22.9433     0.2287     8.0077 </r>
       <r>    23.1063     0.2943     8.0556 </r>
       <r>    23.2693     0.1822     8.0853 </r>
       <r>    23.4322     0.2341     8.1235 </r>
       <r>    23.5952     0.4061     8.1897 </r>
       <r>    23.7582     0.3354     8.2443 </r>
       <r>    23.9211     0.3609     8.3031 </r>
       <r>    24.0841     0.2672     8.3467 </r>
       <r>    24.2471     0.1549     8.3719 </r>
       <r>    24.4100     0.1877     8.4025 </r>
       <r>    24.5730     0.3944     8.4668 </r>
       <r>    24.7360     0.4392     8.5384 </r>
       <r>    24.8989     0.2334     8.5764 </r>
       <r>    25.0619     0.0444     8.5836 </r>
       <r>    25.2249    -0.0234     8.5798 </r>
       <r>    25.3878     0.0697     8.5912 </r>
       <r>    25.5508     0.3130     8.6422 </r>
       <r>    25.7137     0.2043     8.6755 </r>
       <r>    25.8767    -0.0100     8.6739 </r>
       <r>    26.0397     0.1231     8.6939 </r>
       <r>    26.2026     0.5393     8.7818 </r>
       <r>    26.3656     0.6185     8.8826 </r>
       <r>    26.5286     0.2797     8.9282 </r>
       <r>    26.6915     0.1509     8.9528 </r>
       <r>    26.8545     0.0393     8.9592 </r>
       <r>    27.0175     0.0742     8.9713 </r>
       <r>    27.1804     0.2598     9.0136 </r>
       <r>    27.3434     0.2374     9.0523 </r>
       <r>    27.5064     0.0552     9.0613 </r>
       <r>    27.6693     0.2285     9.0985 </r>
       <r>    27.8323     0.2941     9.1464 </r>
       <r>    27.9953     0.0932     9.1616 </r>
       <r>    28.1582     0.1482     9.1858 </r>
       <r>    28.3212     0.2079     9.2196 </r>
       <r>    28.4842     0.0945     9.2350 </r>
       <r>    28.6471     0.1603     9.2612 </r>
       <r>    28.8101     0.0566     9.2704 </r>
       <r>    28.9731     0.2630     9.3133 </r>
       <r>    29.1360     0.5840     9.4084 </r>
       <r>    29.2990     0.2776     9.4537 </r>
       <r>    29.4620     0.1191     9.4731 </r>
       <r>    29.6249     0.3936     9.5372 </r>
       <r>    29.7879     0.4407     9.6090 </r>
       <r>    29.9509     0.2685     9.6528 </r>
       <r>    30.1138     0.1153     9.6716 </r>
       <r>    30.2768     0.2060     9.7051 </r>
       <r>    30.4398     0.2462     9.7453 </r>
       <r>    30.6027     0.0847     9.7591 </r>
       <r>    30.7657    -0.0178     9.7562 </r>
       <r>    30.9287     0.0912     9.7710 </r>
       <r>    31.0916     0.2470     9.8113 </r>
       <r>    31.2546     0.2096     9.8454 </r>
       <r>    31.4176     0.1115     9.8636 </r>
       <r>    31.5805     0.0443     9.8708 </r>
       <r>    31.7435     0.4752     9.9483 </r>
       <r>    31.9065     0.7615    10.0724 </r>
       <r>    32.0694     0.4288    10.1422 </r>
       <r>    32.2324     0.0515    10.1506 </r>
       <r>    32.3953    -0.0024    10.1502 </r>
       <r>    32.5583     0.2091    10.1843 </r>
       <r>    32.7213     0.3520    10.2417 </r>
       <r>    32.8842     0.1630    10.2682 </r>
       <r>    33.0472     0.2658    10.3115 </r>
       <r>    33.2102     0.3858    10.3744 </r>
       <r>    33.3731     0.1517    10.3991 </r>
       <r>    33.5361     0.1319    10.4206 </r>
       <r>    33.6991     0.3231    10.4733 </r>
       <r>    33.8620     0.4951    10.5540 </r>
       <r>    34.0250     0.2804    10.5997 </r>
       <r>    34.1880     0.0601    10.6095 </r>
       <r>    34.3509     0.0205    10.6128 </r>
       <r>    34.5139     0.0449    10.6201 </r>
       <r>    34.6769     0.3093    10.6705 </r>
       <r>    34.8398     0.2888    10.7176 </r>
       <r>    35.0028     0.0405    10.7242 </r>
       <r>    35.1658    -0.0104    10.7225 </r>
       <r>    35.3287    -0.0031    10.7220 </r>
       <r>    35.4917     0.0735    10.7340 </r>
       <r>    35.6547     0.1593    10.7600 </r>
       <r>    35.8176     0.0601    10.7697 </r>
       <r>    35.9806    -0.0031    10.7692 </r>
       <r>    36.1436     0.1503    10.7937 </r>
       <r>    36.3065     0.1967    10.8258 </r>
       <r>    36.4695     0.0238    10.8297 </r>
       <r>    36.6325    -0.0087    10.8283 </r>
       <r>    36.7954    -0.0009    10.8281 </r>
       <r>    36.9584    -0.0018    10.8278 </r>
       <r>    37.1214    -0.0154    10.8253 </r>
       <r>    37.2843     0.0550    10.8343 </r>
       <r>    37.4473     0.3358    10.8890 </r>
       <r>    37.6103     0.2129    10.9237 </r>
       <r>    37.7732     0.0232    10.9275 </r>
       <r>    37.9362     0.0513    10.9358 </r>
       <r>    38.0992     0.0133    10.9380 </r>
       <r>    38.2621    -0.0050    10.9372 </r>
       <r>    38.4251    -0.0008    10.9371 </r>
       <r>    38.5881     0.0588    10.9467 </r>
       <r>    38.7510     0.0811    10.9599 </r>
       <r>    38.9140     0.0106    10.9616 </r>
       <r>    39.0770    -0.0036    10.9610 </r>
       <r>    39.2399    -0.0004    10.9609 </r>
       <r>    39.4029    -0.0002    10.9609 </r>
       <r>    39.5658    -0.0020    10.9606 </r>
       <r>    39.7288     0.0034    10.9611 </r>
       <r>    39.8918     0.0488    10.9691 </r>
       <r>    40.0547     0.0458    10.9766 </r>
       <r>    40.2177     0.0020    10.9769 </r>
       <r>    40.3807    -0.0018    10.9766 </r>
       <r>    40.5436    -0.0001    10.9766 </r>
       <r>    40.7066     0.0000    10.9766 </r>
       <r>    40.8696     0.0000    10.9766 </r>
       <r>    41.0325     0.0000    10.9766 </r>
       <r>    41.1955     0.0000    10.9766 </r>
       <r>    41.3585     0.0000    10.9766 </r>
       <r>    41.5214    -0.0002    10.9765 </r>
       <r>    41.6844    -0.0028    10.9761 </r>
       <r>    41.8474     0.0033    10.9766 </r>
       <r>    42.0103     0.0695    10.9879 </r>
       <r>    42.1733     0.0725    10.9998 </r>
       <r>    42.3363     0.0048    11.0005 </r>
       <r>    42.4992    -0.0030    11.0000 </r>
       <r>    42.6622    -0.0002    11.0000 </r>
       <r>    42.8252     0.0000    11.0000 </r>
       <r>    42.9881     0.0000    11.0000 </r>
       <r>    43.1511     0.0000    11.0000 </r>
       <r>    43.3141     0.0000    11.0000 </r>
       <r>    43.4770     0.0000    11.0000 </r>
       <r>    43.6400     0.0000    11.0000 </r>
       <r>    43.8030     0.0000    11.0000 </r>
       <r>    43.9659     0.0000    11.0000 </r>
       <r>    44.1289     0.0000    11.0000 </r>
       <r>    44.2919     0.0000    11.0000 </r>
      </set>
      <set comment="spin 2">
       <r>    -4.5979     0.0000     0.0000 </r>
       <r>    -4.4349     0.0000     0.0000 </r>
       <r>    -4.2720     0.0000     0.0000 </r>
       <r>    -4.1090     0.0000     0.0000 </r>
       <r>    -3.9460     0.0000     0.0000 </r>
       <r>    -3.7831     0.0000     0.0000 </r>
       <r>    -3.6201     0.0000     0.0000 </r>
       <r>    -3.4571     0.0000     0.0000 </r>
       <r>    -3.2942     0.0000     0.0000 </r>
       <r>    -3.1312     0.0000     0.0000 </r>
       <r>    -2.9682     0.0000     0.0000 </r>
       <r>    -2.8053    -0.0001     0.0000 </r>
       <r>    -2.6423    -0.0014    -0.0002 </r>
       <r>    -2.4794     0.0018     0.0000 </r>
       <r>    -2.3164     0.0351     0.0058 </r>
       <r>    -2.1534     0.0355     0.0116 </r>
       <r>    -1.9905    -0.0004     0.0115 </r>
       <r>    -1.8275     0.0087     0.0129 </r>
       <r>    -1.6645     0.0567     0.0221 </r>
       <r>    -1.5016     0.0315     0.0273 </r>
       <r>    -1.3386    -0.0076     0.0260 </r>
       <r>    -1.1756     0.0868     0.0402 </r>
       <r>    -1.0127     0.1770     0.0690 </r>
       <r>    -0.8497     0.0415     0.0758 </r>
       <r>    -0.6867    -0.0083     0.0744 </r>
       <r>    -0.5238    -0.0018     0.0741 </r>
       <r>    -0.3608    -0.0071     0.0730 </r>
       <r>    -0.1978     0.0093     0.0745 </r>
       <r>    -0.0349     0.1744     0.1029 </r>
       <r>     0.1281     0.1746     0.1314 </r>
       <r>     0.2911     0.0136     0.1336 </r>
       <r>     0.4540     0.1177     0.1528 </r>
       <r>     0.6170     0.1466     0.1766 </r>
       <r>     0.7800     0.0734     0.1886 </r>
       <r>     0.9429     0.1743     0.2170 </r>
       <r>     1.1059     0.0688     0.2282 </r>
       <r>     1.2689    -0.0084     0.2268 </r>
       <r>     1.4318    -0.0117     0.2249 </r>
       <r>     1.5948    -0.0058     0.2240 </r>
       <r>     1.7578     0.2509     0.2649 </r>
       <r>     1.9207     0.4614     0.3401 </r>
       <r>     2.0837     0.1514     0.3648 </r>
       <r>     2.2467     0.1517     0.3895 </r>
       <r>     2.4096     0.5346     0.4766 </r>
       <r>     2.5726     0.2771     0.5218 </r>
       <r>     2.7356     0.0434     0.5288 </r>
       <r>     2.8985     0.0239     0.5327 </r>
       <r>     3.0615     0.4260     0.6022 </r>
       <r>     3.2245     0.8334     0.7380 </r>
       <r>     3.3874     0.3717     0.7986 </r>
       <r>     3.5504     0.2658     0.8419 </r>
       <r>     3.7134     0.4999     0.9233 </r>
       <r>     3.8763     0.5267     1.0092 </r>
       <r>     4.0393     0.3809     1.0712 </r>
       <r>     4.2023     0.5668     1.1636 </r>
       <r>     4.3652     0.9934     1.3255 </r>
       <r>     4.5282     1.0624     1.4986 </r>
       <r>     4.6911     1.6930     1.7745 </r>
       <r>     4.8541     1.3015     1.9866 </r>
       <r>     5.0171     0.9870     2.1475 </r>
       <r>     5.1800     1.2719     2.3547 </r>
       <r>     5.3430     1.0737     2.5297 </r>
       <r>     5.5060     0.9702     2.6878 </r>
       <r>     5.6689     0.9550     2.8434 </r>
       <r>     5.8319     0.4781     2.9214 </r>
       <r>     5.9949     0.0456     2.9288 </r>
       <r>     6.1578    -0.0311     2.9237 </r>
       <r>     6.3208     0.0534     2.9324 </r>
       <r>     6.4838     0.3926     2.9964 </r>
       <r>     6.6467     0.5137     3.0801 </r>
       <r>     6.8097     0.3776     3.1417 </r>
       <r>     6.9727     0.5159     3.2257 </r>
       <r>     7.1356     0.5162     3.3098 </r>
       <r>     7.2986     0.8683     3.4514 </r>
       <r>     7.4616     1.4332     3.6849 </r>
       <r>     7.6245     1.1265     3.8685 </r>
       <r>     7.7875     0.8729     4.0107 </r>
       <r>     7.9505     1.1490     4.1980 </r>
       <r>     8.1134     1.8255     4.4955 </r>
       <r>     8.2764     2.4922     4.9016 </r>
       <r>     8.4394     1.6784     5.1752 </r>
       <r>     8.6023     0.7274     5.2937 </r>
       <r>     8.7653     0.4509     5.3672 </r>
       <r>     8.9283     0.3007     5.4162 </r>
       <r>     9.0912     0.3134     5.4673 </r>
       <r>     9.2542     0.2689     5.5111 </r>
       <r>     9.4172     0.1007     5.5275 </r>
       <r>     9.5801     0.0717     5.5392 </r>
       <r>     9.7431     0.0088     5.5406 </r>
       <r>     9.9061     0.0523     5.5491 </r>
       <r>    10.0690     0.3305     5.6030 </r>
       <r>    10.2320     0.3023     5.6523 </r>
       <r>    10.3950     0.1890     5.6831 </r>
       <r>    10.5579     0.3521     5.7404 </r>
       <r>    10.7209     0.3138     5.7916 </r>
       <r>    10.8839     0.0228     5.7953 </r>
       <r>    11.0468    -0.0145     5.7929 </r>
       <r>    11.2098    -0.0097     5.7913 </r>
       <r>    11.3727     0.0437     5.7985 </r>
       <r>    11.5357     0.1742     5.8268 </r>
       <r>    11.6987     0.1793     5.8561 </r>
       <r>    11.8616     0.1655     5.8830 </r>
       <r>    12.0246     0.0246     5.8870 </r>
       <r>    12.1876     0.0072     5.8882 </r>
       <r>    12.3505     0.1532     5.9132 </r>
       <r>    12.5135     0.1237     5.9333 </r>
       <r>    12.6765     0.0187     5.9364 </r>
       <r>    12.8394     0.0812     5.9496 </r>
       <r>    13.0024     0.0494     5.9577 </r>
       <r>    13.1654    -0.0059     5.9567 </r>
       <r>    13.3283     0.0015     5.9570 </r>
       <r>    13.4913     0.0890     5.9715 </r>
       <r>    13.6543     0.0980     5.9874 </r>
       <r>    13.8172     0.0305     5.9924 </r>
       <r>    13.9802     0.0256     5.9966 </r>
       <r>    14.1432     0.0770     6.0091 </r>
       <r>    14.3061     0.2848     6.0555 </r>
       <r>    14.4691     0.3134     6.1066 </r>
       <r>    14.6321     0.2520     6.1477 </r>
       <r>    14.7950     0.1404     6.1706 </r>
       <r>    14.9580     0.1313     6.1920 </r>
       <r>    15.1210     0.2011     6.2247 </r>
       <r>    15.2839     0.5531     6.3149 </r>
       <r>    15.4469     0.5240     6.4003 </r>
       <r>    15.6099     0.1475     6.4243 </r>
       <r>    15.7728     0.0647     6.4348 </r>
       <r>    15.9358     0.0560     6.4440 </r>
       <r>    16.0988     0.2463     6.4841 </r>
       <r>    16.2617     0.2019     6.5170 </r>
       <r>    16.4247     0.1702     6.5448 </r>
       <r>    16.5877     0.0625     6.5549 </r>
       <r>    16.7506     0.0830     6.5685 </r>
       <r>    16.9136     0.1579     6.5942 </r>
       <r>    17.0766     0.2221     6.6304 </r>
       <r>    17.2395     0.4331     6.7010 </r>
       <r>    17.4025     0.3206     6.7532 </r>
       <r>    17.5655     0.0807     6.7664 </r>
       <r>    17.7284     0.0117     6.7683 </r>
       <r>    17.8914     0.2091     6.8024 </r>
       <r>    18.0544     0.3115     6.8532 </r>
       <r>    18.2173     0.2935     6.9010 </r>
       <r>    18.3803     0.3319     6.9551 </r>
       <r>    18.5432     0.3211     7.0074 </r>
       <r>    18.7062     0.2799     7.0530 </r>
       <r>    18.8692     0.0525     7.0616 </r>
       <r>    19.0321     0.0817     7.0749 </r>
       <r>    19.1951     0.1748     7.1034 </r>
       <r>    19.3581     0.1468     7.1273 </r>
       <r>    19.5210     0.1680     7.1547 </r>
       <r>    19.6840     0.0494     7.1627 </r>
       <r>    19.8470     0.1674     7.1900 </r>
       <r>    20.0099     0.4407     7.2618 </r>
       <r>    20.1729     0.3333     7.3162 </r>
       <r>    20.3359     0.0676     7.3272 </r>
       <r>    20.4988     0.1216     7.3470 </r>
       <r>    20.6618     0.3589     7.4055 </r>
       <r>    20.8248     0.1210     7.4252 </r>
       <r>    20.9877    -0.0178     7.4223 </r>
       <r>    21.1507    -0.0121     7.4203 </r>
       <r>    21.3137     0.0417     7.4271 </r>
       <r>    21.4766     0.1694     7.4547 </r>
       <r>    21.6396     0.0977     7.4706 </r>
       <r>    21.8026     0.1751     7.4992 </r>
       <r>    21.9655     0.3155     7.5506 </r>
       <r>    22.1285     0.2447     7.5905 </r>
       <r>    22.2915     0.0881     7.6048 </r>
       <r>    22.4544     0.2148     7.6398 </r>
       <r>    22.6174     0.4390     7.7114 </r>
       <r>    22.7804     0.4099     7.7782 </r>
       <r>    22.9433     0.2858     7.8248 </r>
       <r>    23.1063     0.3495     7.8817 </r>
       <r>    23.2693     0.2593     7.9240 </r>
       <r>    23.4322     0.2012     7.9568 </r>
       <r>    23.5952     0.2133     7.9915 </r>
       <r>    23.7582     0.2722     8.0359 </r>
       <r>    23.9211     0.2446     8.0758 </r>
       <r>    24.0841     0.0820     8.0891 </r>
       <r>    24.2471     0.2131     8.1238 </r>
       <r>    24.4100     0.4065     8.1901 </r>
       <r>    24.5730     0.4317     8.2604 </r>
       <r>    24.7360     0.2620     8.3031 </r>
       <r>    24.8989     0.2808     8.3489 </r>
       <r>    25.0619     0.3444     8.4050 </r>
       <r>    25.2249     0.0859     8.4190 </r>
       <r>    25.3878    -0.0007     8.4189 </r>
       <r>    25.5508     0.2600     8.4613 </r>
       <r>    25.7137     0.5649     8.5533 </r>
       <r>    25.8767     0.4084     8.6199 </r>
       <r>    26.0397     0.0735     8.6319 </r>
       <r>    26.2026    -0.0178     8.6290 </r>
       <r>    26.3656    -0.0272     8.6245 </r>
       <r>    26.5286     0.0761     8.6369 </r>
       <r>    26.6915     0.5504     8.7266 </r>
       <r>    26.8545     0.5018     8.8084 </r>
       <r>    27.0175     0.2405     8.8476 </r>
       <r>    27.1804     0.3757     8.9088 </r>
       <r>    27.3434     0.3645     8.9682 </r>
       <r>    27.5064     0.1812     8.9978 </r>
       <r>    27.6693     0.0451     9.0051 </r>
       <r>    27.8323     0.0838     9.0188 </r>
       <r>    27.9953     0.1810     9.0483 </r>
       <r>    28.1582     0.0753     9.0605 </r>
       <r>    28.3212     0.0273     9.0650 </r>
       <r>    28.4842     0.1411     9.0880 </r>
       <r>    28.6471     0.3027     9.1373 </r>
       <r>    28.8101     0.2301     9.1748 </r>
       <r>    28.9731     0.1770     9.2036 </r>
       <r>    29.1360     0.1791     9.2328 </r>
       <r>    29.2990     0.2110     9.2672 </r>
       <r>    29.4620     0.0958     9.2828 </r>
       <r>    29.6249     0.0717     9.2945 </r>
       <r>    29.7879    -0.0018     9.2942 </r>
       <r>    29.9509     0.1211     9.3139 </r>
       <r>    30.1138     0.3490     9.3708 </r>
       <r>    30.2768     0.3597     9.4294 </r>
       <r>    30.4398     0.5941     9.5263 </r>
       <r>    30.6027     0.3769     9.5877 </r>
       <r>    30.7657     0.0736     9.5997 </r>
       <r>    30.9287     0.3259     9.6528 </r>
       <r>    31.0916     0.4884     9.7324 </r>
       <r>    31.2546     0.2370     9.7710 </r>
       <r>    31.4176     0.0224     9.7747 </r>
       <r>    31.5805     0.1108     9.7927 </r>
       <r>    31.7435     0.1573     9.8184 </r>
       <r>    31.9065     0.0108     9.8201 </r>
       <r>    32.0694     0.0166     9.8228 </r>
       <r>    32.2324     0.1553     9.8481 </r>
       <r>    32.3953     0.2633     9.8910 </r>
       <r>    32.5583     0.3361     9.9458 </r>
       <r>    32.7213     0.1542     9.9710 </r>
       <r>    32.8842     0.3947    10.0353 </r>
       <r>    33.0472     0.5334    10.1222 </r>
       <r>    33.2102     0.2389    10.1611 </r>
       <r>    33.3731     0.2046    10.1945 </r>
       <r>    33.5361     0.5974    10.2918 </r>
       <r>    33.6991     0.5842    10.3870 </r>
       <r>    33.8620     0.0726    10.3989 </r>
       <r>    34.0250    -0.0339    10.3933 </r>
       <r>    34.1880     0.0538    10.4021 </r>
       <r>    34.3509     0.1728    10.4303 </r>
       <r>    34.5139     0.1300    10.4515 </r>
       <r>    34.6769     0.1649    10.4783 </r>
       <r>    34.8398     0.1124    10.4967 </r>
       <r>    35.0028     0.1608    10.5228 </r>
       <r>    35.1658     0.1193    10.5423 </r>
       <r>    35.3287     0.2405    10.5815 </r>
       <r>    35.4917     0.1608    10.6077 </r>
       <r>    35.6547     0.0574    10.6170 </r>
       <r>    35.8176     0.2173    10.6525 </r>
       <r>    35.9806     0.4129    10.7197 </r>
       <r>    36.1436     0.2694    10.7636 </r>
       <r>    36.3065     0.0573    10.7730 </r>
       <r>    36.4695     0.0401    10.7795 </r>
       <r>    36.6325     0.0116    10.7814 </r>
       <r>    36.7954    -0.0106    10.7797 </r>
       <r>    36.9584     0.0559    10.7888 </r>
       <r>    37.1214     0.1784    10.8179 </r>
       <r>    37.2843     0.0937    10.8331 </r>
       <r>    37.4473     0.0496    10.8412 </r>
       <r>    37.6103    -0.0006    10.8411 </r>
       <r>    37.7732     0.0879    10.8554 </r>
       <r>    37.9362     0.3563    10.9135 </r>
       <r>    38.0992     0.1663    10.9406 </r>
       <r>    38.2621    -0.0162    10.9380 </r>
       <r>    38.4251    -0.0031    10.9375 </r>
       <r>    38.5881     0.0671    10.9484 </r>
       <r>    38.7510     0.0745    10.9605 </r>
       <r>    38.9140     0.0059    10.9615 </r>
       <r>    39.0770    -0.0031    10.9610 </r>
       <r>    39.2399    -0.0003    10.9609 </r>
       <r>    39.4029     0.0000    10.9609 </r>
       <r>    39.5658     0.0000    10.9609 </r>
       <r>    39.7288     0.0000    10.9609 </r>
       <r>    39.8918     0.0000    10.9609 </r>
       <r>    40.0547    -0.0001    10.9609 </r>
       <r>    40.2177    -0.0015    10.9607 </r>
       <r>    40.3807     0.0000    10.9607 </r>
       <r>    40.5436     0.0401    10.9672 </r>
       <r>    40.7066     0.0535    10.9759 </r>
       <r>    40.8696     0.0065    10.9770 </r>
       <r>    41.0325    -0.0024    10.9766 </r>
       <r>    41.1955    -0.0002    10.9766 </r>
       <r>    41.3585     0.0000    10.9766 </r>
       <r>    41.5214    -0.0001    10.9766 </r>
       <r>    41.6844    -0.0014    10.9763 </r>
       <r>    41.8474    -0.0033    10.9758 </r>
       <r>    42.0103     0.0423    10.9827 </r>
       <r>    42.1733     0.0890    10.9972 </r>
       <r>    42.3363     0.0221    11.0008 </r>
       <r>    42.4992    -0.0042    11.0001 </r>
       <r>    42.6622    -0.0007    11.0000 </r>
       <r>    42.8252     0.0000    11.0000 </r>
       <r>    42.9881     0.0000    11.0000 </r>
       <r>    43.1511     0.0000    11.0000 </r>
       <r>    43.3141     0.0000    11.0000 </r>
       <r>    43.4770     0.0000    11.0000 </r>
       <r>    43.6400     0.0000    11.0000 </r>
       <r>    43.8030     0.0000    11.0000 </r>
       <r>    43.9659     0.0000    11.0000 </r>
       <r>    44.1289     0.0000    11.0000 </r>
       <r>    44.2919     0.0000    11.0000 </r>
      </set>
     </set>
    </array>
   </total>
   <partial>
    <array>
     <dimension dim="1">gridpoints</dimension>
     <dimension dim="2">spin</dimension>
     <dimension dim="3">ion</dimension>
     <field>energy</field>
     <field>  s</field>
     <field> py</field>
     <field> pz</field>
     <field> px</field>
     <field>dxy</field>
     <field>dyz</field>
     <field>dz2</field>
     <field>dxz</field>
     <field>dx2</field>
     <set>
      <set comment="ion 1">
       <set comment="spin 1">
        <r>    -4.5979     0.0000     0.0000     0.0000     0.0000     0.0000     0.0000     0.0000     0.0000     0.0000 </r>
        <r>    -4.4349     0.0000     0.0000     0.0000     0.0000     0.0000     0.0000     0.0000     0.0000     0.0000 </r>
        <r>    -4.2720     0.0000     0.0000     0.0000     0.0000     0.0000     0.0000     0.0000     0.0000     0.0000 </r>
        <r>    -4.1090     0.0000     0.0000     0.0000     0.0000     0.0000     0.0000     0.0000     0.0000     0.0000 </r>
        <r>    -3.9460     0.0000     0.0000     0.0000     0.0000     0.0000     0.0000     0.0000     0.0000     0.0000 </r>
        <r>    -3.7831     0.0000     0.0000     0.0000     0.0000     0.0000     0.0000     0.0000     0.0000     0.0000 </r>
        <r>    -3.6201     0.0000     0.0000     0.0000     0.0000     0.0000     0.0000     0.0000     0.0000     0.0000 </r>
        <r>    -3.4571     0.0000     0.0000     0.0000     0.0000     0.0000     0.0000     0.0000     0.0000     0.0000 </r>
        <r>    -3.2942     0.0000     0.0000     0.0000     0.0000     0.0000     0.0000     0.0000     0.0000     0.0000 </r>
        <r>    -3.1312     0.0000     0.0000     0.0000     0.0000     0.0000     0.0000     0.0000     0.0000     0.0000 </r>
        <r>    -2.9682     0.0000     0.0000     0.0000     0.0000     0.0000     0.0000     0.0000     0.0000     0.0000 </r>
        <r>    -2.8053    -0.0002     0.0000     0.0000     0.0000     0.0000     0.0000     0.0000     0.0000     0.0000 </r>
        <r>    -2.6423    -0.0014     0.0000     0.0000     0.0000     0.0000     0.0000     0.0000     0.0000     0.0000 </r>
        <r>    -2.4794     0.0075     0.0000     0.0000     0.0002     0.0000     0.0000     0.0000     0.0000     0.0000 </r>
        <r>    -2.3164     0.0302     0.0000     0.0000     0.0009     0.0000     0.0000     0.0000     0.0000     0.0000 </r>
        <r>    -2.1534     0.0137     0.0000     0.0000     0.0004     0.0000     0.0000     0.0000     0.0000     0.0000 </r>
        <r>    -1.9905    -0.0022     0.0000     0.0000    -0.0001     0.0000     0.0000     0.0000     0.0000     0.0000 </r>
        <r>    -1.8275     0.0202     0.0006     0.0006     0.0006     0.0001     0.0001     0.0000     0.0001     0.0000 </r>
        <r>    -1.6645     0.0359     0.0011     0.0011     0.0010     0.0002     0.0002     0.0000     0.0002     0.0000 </r>
        <r>    -1.5016     0.0024     0.0001     0.0002    -0.0004    -0.0001     0.0000    -0.0001     0.0000    -0.0001 </r>
        <r>    -1.3386     0.0250     0.0007    -0.0001     0.0034     0.0009     0.0000     0.0004     0.0000     0.0003 </r>
        <r>    -1.1756     0.1041     0.0030     0.0000     0.0134     0.0035     0.0000     0.0014     0.0000     0.0011 </r>
        <r>    -1.0127     0.0484     0.0014     0.0000     0.0062     0.0016     0.0000     0.0006     0.0000     0.0005 </r>
        <r>    -0.8497    -0.0041    -0.0001     0.0000    -0.0005    -0.0001     0.0000    -0.0001     0.0000     0.0000 </r>
        <r>    -0.6867    -0.0033    -0.0002    -0.0002    -0.0003    -0.0001    -0.0003     0.0000     0.0000    -0.0001 </r>
        <r>    -0.5238    -0.0036    -0.0003    -0.0003    -0.0004     0.0000    -0.0005    -0.0001     0.0000    -0.0002 </r>
        <r>    -0.3608     0.0500     0.0051     0.0051     0.0034     0.0004     0.0093     0.0007     0.0006     0.0024 </r>
        <r>    -0.1978     0.0978     0.0092     0.0094     0.0084    -0.0016     0.0172     0.0004     0.0009     0.0054 </r>
        <r>    -0.0349     0.0520     0.0029     0.0025     0.0109     0.0055     0.0021     0.0003     0.0032     0.0033 </r>
        <r>     0.1281     0.1213     0.0042     0.0013     0.0323     0.0712    -0.0054     0.0419     0.0104     0.0166 </r>
        <r>     0.2911     0.0987     0.0033     0.0012     0.0202     0.1094     0.0461     0.1032     0.0043     0.0574 </r>
        <r>     0.4540     0.0415     0.0025     0.0025     0.0021     0.0330     0.1215     0.0761    -0.0011     0.0854 </r>
        <r>     0.6170     0.0452     0.0030     0.0039     0.0139     0.1124     0.0382     0.2395     0.0015     0.0736 </r>
[...]
       <set comment="band 2">
        <r>  0.0000 </r>
       </set>
       <set comment="band 3">
        <r>  0.0178 </r>
       </set>
       <set comment="band 4">
        <r>  0.0029 </r>
       </set>
       <set comment="band 5">
        <r>  0.0000 </r>
       </set>
       <set comment="band 6">
        <r>  0.0106 </r>
       </set>
       <set comment="band 7">
        <r>  0.2235 </r>
       </set>
       <set comment="band 8">
        <r>  0.0000 </r>
       </set>
       <set comment="band 9">
        <r>  0.1262 </r>
       </set>
       <set comment="band 10">
        <r>  0.0000 </r>
       </set>
       <set comment="band 11">
        <r>  0.1038 </r>
       </set>
      </set>
      <set comment="kpoint 4">
       <set comment="band 1">
        <r>  0.1643 </r>
       </set>
       <set comment="band 2">
        <r>  0.0000 </r>
       </set>
       <set comment="band 3">
        <r>  0.0000 </r>
       </set>
       <set comment="band 4">
        <r>  0.0057 </r>
       </set>
       <set comment="band 5">
        <r>  0.0000 </r>
       </set>
       <set comment="band 6">
        <r>  0.0000 </r>
       </set>
       <set comment="band 7">
        <r>  0.3744 </r>
       </set>
       <set comment="band 8">
        <r>  0.0000 </r>
       </set>
       <set comment="band 9">
        <r>  0.1217 </r>
       </set>
       <set comment="band 10">
        <r>  0.0000 </r>
       </set>
       <set comment="band 11">
        <r>  0.1463 </r>
       </set>
      </set>
      <set comment="kpoint 5">
       <set comment="band 1">
        <r>  0.6751 </r>
       </set>
       <set comment="band 2">
        <r>  0.0000 </r>
       </set>
       <set comment="band 3">
        <r>  0.0000 </r>
       </set>
       <set comment="band 4">
        <r>  0.0000 </r>
       </set>
       <set comment="band 5">
        <r>  0.0000 </r>
       </set>
       <set comment="band 6">
        <r>  0.0002 </r>
       </set>
       <set comment="band 7">
        <r>  0.0000 </r>
       </set>
       <set comment="band 8">
        <r>  0.0000 </r>
       </set>
       <set comment="band 9">
        <r>  0.0000 </r>
       </set>
       <set comment="band 10">
        <r>  0.0179 </r>
       </set>
       <set comment="band 11">
        <r>  0.0000 </r>
       </set>
      </set>
      <set comment="kpoint 6">
       <set comment="band 1">
        <r>  0.3424 </r>
       </set>
       <set comment="band 2">
        <r>  0.0000 </r>
       </set>
       <set comment="band 3">
        <r>  0.0023 </r>
       </set>
       <set comment="band 4">
        <r>  0.0000 </r>
       </set>
       <set comment="band 5">
        <r>  0.0007 </r>
       </set>
       <set comment="band 6">
        <r>  0.0234 </r>
       </set>
       <set comment="band 7">
        <r>  0.0000 </r>
       </set>
       <set comment="band 8">
        <r>  0.2111 </r>
       </set>
       <set comment="band 9">
        <r>  0.1526 </r>
       </set>
       <set comment="band 10">
        <r>  0.0000 </r>
       </set>
       <set comment="band 11">
        <r>  0.0192 </r>
       </set>
      </set>
      <set comment="kpoint 7">
       <set comment="band 1">
        <r>  0.1361 </r>
       </set>
       <set comment="band 2">
        <r>  0.0003 </r>
       </set>
       <set comment="band 3">
        <r>  0.0075 </r>
       </set>
       <set comment="band 4">
        <r>  0.0014 </r>
       </set>
       <set comment="band 5">
        <r>  0.0011 </r>
       </set>
       <set comment="band 6">
        <r>  0.0348 </r>
       </set>
       <set comment="band 7">
        <r>  0.2494 </r>
       </set>
       <set comment="band 8">
        <r>  0.1714 </r>
       </set>
       <set comment="band 9">
        <r>  0.1341 </r>
       </set>
       <set comment="band 10">
        <r>  0.0063 </r>
       </set>
       <set comment="band 11">
        <r>  0.0040 </r>
       </set>
      </set>
      <set comment="kpoint 8">
       <set comment="band 1">
        <r>  0.5896 </r>
       </set>
       <set comment="band 2">
        <r>  0.0000 </r>
       </set>
       <set comment="band 3">
        <r>  0.0009 </r>
       </set>
       <set comment="band 4">
        <r>  0.0000 </r>
       </set>
       <set comment="band 5">
        <r>  0.0001 </r>
       </set>
       <set comment="band 6">
        <r>  0.0026 </r>
       </set>
       <set comment="band 7">
        <r>  0.0264 </r>
       </set>
       <set comment="band 8">
        <r>  0.0235 </r>
       </set>
       <set comment="band 9">
        <r>  0.0000 </r>
       </set>
       <set comment="band 10">
        <r>  0.0045 </r>
       </set>
       <set comment="band 11">
        <r>  0.0000 </r>
       </set>
      </set>
      <set comment="kpoint 9">
       <set comment="band 1">
        <r>  0.0545 </r>
       </set>
       <set comment="band 2">
        <r>  0.0000 </r>
       </set>
       <set comment="band 3">
        <r>  0.0000 </r>
       </set>
       <set comment="band 4">
        <r>  0.0000 </r>
       </set>
       <set comment="band 5">
        <r>  0.0000 </r>
       </set>
       <set comment="band 6">
        <r>  0.0000 </r>
       </set>
       <set comment="band 7">
        <r>  0.0000 </r>
       </set>
       <set comment="band 8">
        <r>  0.5690 </r>
       </set>
       <set comment="band 9">
        <r>  0.1298 </r>
       </set>
       <set comment="band 10">
        <r>  0.0000 </r>
       </set>
       <set comment="band 11">
        <r>  0.0000 </r>
       </set>
      </set>
      <set comment="kpoint 10">
       <set comment="band 1">
        <r>  0.4200 </r>
       </set>
       <set comment="band 2">
        <r>  0.0000 </r>
       </set>
       <set comment="band 3">
        <r>  0.0103 </r>
       </set>
       <set comment="band 4">
        <r>  0.0002 </r>
       </set>
       <set comment="band 5">
        <r>  0.0000 </r>
       </set>
       <set comment="band 6">
        <r>  0.0094 </r>
       </set>
       <set comment="band 7">
        <r>  0.1443 </r>
       </set>
       <set comment="band 8">
        <r>  0.0232 </r>
       </set>
       <set comment="band 9">
        <r>  0.0000 </r>
       </set>
       <set comment="band 10">
        <r>  0.0000 </r>
       </set>
       <set comment="band 11">
        <r>  0.0777 </r>
       </set>
      </set>
      <set comment="kpoint 11">
       <set comment="band 1">
        <r>  0.4615 </r>
       </set>
       <set comment="band 2">
        <r>  0.0000 </r>
       </set>
       <set comment="band 3">
        <r>  0.0014 </r>
       </set>
       <set comment="band 4">
        <r>  0.0000 </r>
       </set>
       <set comment="band 5">
        <r>  0.0014 </r>
       </set>
       <set comment="band 6">
        <r>  0.0168 </r>
       </set>
       <set comment="band 7">
        <r>  0.0000 </r>
       </set>
       <set comment="band 8">
        <r>  0.1471 </r>
       </set>
       <set comment="band 9">
        <r>  0.0000 </r>
       </set>
       <set comment="band 10">
        <r>  0.0018 </r>
       </set>
       <set comment="band 11">
        <r>  0.0998 </r>
       </set>
      </set>
      <set comment="kpoint 12">
       <set comment="band 1">
        <r>  0.2104 </r>
       </set>
       <set comment="band 2">
        <r>  0.0000 </r>
       </set>
       <set comment="band 3">
        <r>  0.0138 </r>
       </set>
       <set comment="band 4">
        <r>  0.0050 </r>
       </set>
       <set comment="band 5">
        <r>  0.0000 </r>
       </set>
       <set comment="band 6">
        <r>  0.0098 </r>
       </set>
       <set comment="band 7">
        <r>  0.3244 </r>
       </set>
       <set comment="band 8">
        <r>  0.0202 </r>
       </set>
       <set comment="band 9">
        <r>  0.0000 </r>
       </set>
       <set comment="band 10">
        <r>  0.0000 </r>
       </set>
       <set comment="band 11">
        <r>  0.1869 </r>
       </set>
      </set>
      <set comment="kpoint 13">
       <set comment="band 1">
        <r>  0.2579 </r>
       </set>
       <set comment="band 2">
        <r>  0.0025 </r>
       </set>
       <set comment="band 3">
        <r>  0.0038 </r>
       </set>
       <set comment="band 4">
        <r>  0.0008 </r>
       </set>
       <set comment="band 5">
        <r>  0.0039 </r>
       </set>
       <set comment="band 6">
        <r>  0.0445 </r>
       </set>
       <set comment="band 7">
        <r>  0.1887 </r>
       </set>
       <set comment="band 8">
        <r>  0.1092 </r>
       </set>
       <set comment="band 9">
        <r>  0.0015 </r>
       </set>
       <set comment="band 10">
        <r>  0.0299 </r>
       </set>
       <set comment="band 11">
        <r>  0.0556 </r>
       </set>
      </set>
      <set comment="kpoint 14">
       <set comment="band 1">
        <r>  0.1305 </r>
       </set>
       <set comment="band 2">
        <r>  0.0018 </r>
       </set>
       <set comment="band 3">
        <r>  0.0000 </r>
       </set>
       <set comment="band 4">
        <r>  0.0097 </r>
       </set>
       <set comment="band 5">
        <r>  0.0000 </r>
       </set>
       <set comment="band 6">
        <r>  0.0000 </r>
       </set>
       <set comment="band 7">
        <r>  0.3509 </r>
       </set>
       <set comment="band 8">
        <r>  0.1104 </r>
       </set>
       <set comment="band 9">
        <r>  0.0013 </r>
       </set>
       <set comment="band 10">
        <r>  0.0608 </r>
       </set>
       <set comment="band 11">
        <r>  0.0000 </r>
       </set>
      </set>
      <set comment="kpoint 15">
       <set comment="band 1">
        <r>  0.1028 </r>
       </set>
       <set comment="band 2">
        <r>  0.0000 </r>
       </set>
       <set comment="band 3">
        <r>  0.0022 </r>
       </set>
       <set comment="band 4">
        <r>  0.0000 </r>
       </set>
       <set comment="band 5">
        <r>  0.0049 </r>
       </set>
       <set comment="band 6">
        <r>  0.0536 </r>
       </set>
       <set comment="band 7">
        <r>  0.0000 </r>
       </set>
       <set comment="band 8">
        <r>  0.4486 </r>
       </set>
       <set comment="band 9">
        <r>  0.0245 </r>
       </set>
       <set comment="band 10">
        <r>  0.0000 </r>
       </set>
       <set comment="band 11">
        <r>  0.0266 </r>
       </set>
      </set>
      <set comment="kpoint 16">
       <set comment="band 1">
        <r>  0.1552 </r>
       </set>
       <set comment="band 2">
        <r>  0.0000 </r>
       </set>
       <set comment="band 3">
        <r>  0.0000 </r>
       </set>
       <set comment="band 4">
        <r>  0.0000 </r>
       </set>
       <set comment="band 5">
        <r>  0.0000 </r>
       </set>
       <set comment="band 6">
        <r>  0.0600 </r>
       </set>
       <set comment="band 7">
        <r>  0.0000 </r>
       </set>
       <set comment="band 8">
        <r>  0.0000 </r>
       </set>
       <set comment="band 9">
        <r>  0.5618 </r>
       </set>
       <set comment="band 10">
        <r>  0.0000 </r>
       </set>
       <set comment="band 11">
        <r>  0.0000 </r>
       </set>
      </set>
      <set comment="kpoint 17">
       <set comment="band 1">
        <r>  0.0355 </r>
       </set>
       <set comment="band 2">
        <r>  0.0000 </r>
       </set>
       <set comment="band 3">
        <r>  0.0000 </r>
       </set>
       <set comment="band 4">
        <r>  0.0002 </r>
       </set>
       <set comment="band 5">
        <r>  0.0000 </r>
       </set>
       <set comment="band 6">
        <r>  0.0000 </r>
       </set>
       <set comment="band 7">
        <r>  0.2426 </r>
       </set>
       <set comment="band 8">
        <r>  0.0000 </r>
       </set>
       <set comment="band 9">
        <r>  0.5118 </r>
       </set>
       <set comment="band 10">
        <r>  0.0000 </r>
       </set>
       <set comment="band 11">
        <r>  0.0000 </r>
       </set>
      </set>
      <set comment="kpoint 18">
       <set comment="band 1">
        <r>  0.5002 </r>
       </set>
       <set comment="band 2">
        <r>  0.0000 </r>
       </set>
       <set comment="band 3">
        <r>  0.0000 </r>
       </set>
       <set comment="band 4">
        <r>  0.0000 </r>
       </set>
       <set comment="band 5">
        <r>  0.0000 </r>
       </set>
       <set comment="band 6">
        <r>  0.0219 </r>
       </set>
       <set comment="band 7">
        <r>  0.0000 </r>
       </set>
       <set comment="band 8">
        <r>  0.0000 </r>
       </set>
       <set comment="band 9">
        <r>  0.0000 </r>
       </set>
       <set comment="band 10">
        <r>  0.1646 </r>
       </set>
       <set comment="band 11">
        <r>  0.0000 </r>
       </set>
      </set>
      <set comment="kpoint 19">
       <set comment="band 1">
        <r>  0.3241 </r>
       </set>
       <set comment="band 2">
        <r>  0.0008 </r>
       </set>
       <set comment="band 3">
        <r>  0.0000 </r>
       </set>
       <set comment="band 4">
        <r>  0.0000 </r>
       </set>
       <set comment="band 5">
        <r>  0.0000 </r>
       </set>
       <set comment="band 6">
        <r>  0.0692 </r>
       </set>
       <set comment="band 7">
        <r>  0.0968 </r>
       </set>
       <set comment="band 8">
        <r>  0.0000 </r>
       </set>
       <set comment="band 9">
        <r>  0.0925 </r>
       </set>
       <set comment="band 10">
        <r>  0.0588 </r>
       </set>
       <set comment="band 11">
        <r>  0.0000 </r>
       </set>
      </set>
      <set comment="kpoint 20">
       <set comment="band 1">
        <r>  0.1328 </r>
       </set>
       <set comment="band 2">
        <r>  0.0017 </r>
       </set>
       <set comment="band 3">
        <r>  0.0000 </r>
       </set>
       <set comment="band 4">
        <r>  0.0159 </r>
       </set>
       <set comment="band 5">
        <r>  0.0000 </r>
       </set>
       <set comment="band 6">
        <r>  0.0596 </r>
       </set>
       <set comment="band 7">
        <r>  0.2633 </r>
       </set>
       <set comment="band 8">
        <r>  0.0000 </r>
       </set>
       <set comment="band 9">
        <r>  0.1027 </r>
       </set>
       <set comment="band 10">
        <r>  0.0109 </r>
       </set>
       <set comment="band 11">
        <r>  0.0000 </r>
       </set>
      </set>
      <set comment="kpoint 21">
       <set comment="band 1">
        <r>  0.1368 </r>
       </set>
       <set comment="band 2">
        <r>  0.0000 </r>
       </set>
       <set comment="band 3">
        <r>  0.0055 </r>
       </set>
       <set comment="band 4">
        <r>  0.0000 </r>
       </set>
       <set comment="band 5">
        <r>  0.0093 </r>
       </set>
       <set comment="band 6">
        <r>  0.1150 </r>
       </set>
       <set comment="band 7">
        <r>  0.0000 </r>
       </set>
       <set comment="band 8">
        <r>  0.2339 </r>
       </set>
       <set comment="band 9">
        <r>  0.0000 </r>
       </set>
       <set comment="band 10">
        <r>  0.0890 </r>
       </set>
       <set comment="band 11">
        <r>  0.0014 </r>
       </set>
      </set>
      <set comment="kpoint 22">
       <set comment="band 1">
        <r>  0.0346 </r>
       </set>
       <set comment="band 2">
        <r>  0.0000 </r>
       </set>
       <set comment="band 3">
        <r>  0.0311 </r>
       </set>
       <set comment="band 4">
        <r>  0.0095 </r>
       </set>
       <set comment="band 5">
        <r>  0.0000 </r>
       </set>
       <set comment="band 6">
        <r>  0.0000 </r>
       </set>
       <set comment="band 7">
        <r>  0.2607 </r>
       </set>
       <set comment="band 8">
        <r>  0.1559 </r>
       </set>
       <set comment="band 9">
        <r>  0.0314 </r>
       </set>
       <set comment="band 10">
        <r>  0.0000 </r>
       </set>
       <set comment="band 11">
        <r>  0.0423 </r>
       </set>
      </set>
      <set comment="kpoint 23">
       <set comment="band 1">
        <r>  0.1482 </r>
       </set>
       <set comment="band 2">
        <r>  0.0000 </r>
       </set>
       <set comment="band 3">
        <r>  0.0000 </r>
       </set>
       <set comment="band 4">
        <r>  0.0000 </r>
       </set>
       <set comment="band 5">
        <r>  0.0000 </r>
       </set>
       <set comment="band 6">
        <r>  0.1610 </r>
       </set>
       <set comment="band 7">
        <r>  0.0000 </r>
       </set>
       <set comment="band 8">
        <r>  0.0000 </r>
       </set>
       <set comment="band 9">
        <r>  0.0000 </r>
       </set>
       <set comment="band 10">
        <r>  0.2899 </r>
       </set>
       <set comment="band 11">
        <r>  0.1267 </r>
       </set>
      </set>
      <set comment="kpoint 24">
       <set comment="band 1">
        <r>  0.0275 </r>
       </set>
       <set comment="band 2">
        <r>  0.0003 </r>
       </set>
       <set comment="band 3">
        <r>  0.0000 </r>
       </set>
       <set comment="band 4">
        <r>  0.0197 </r>
       </set>
       <set comment="band 5">
        <r>  0.0000 </r>
       </set>
       <set comment="band 6">
        <r>  0.1243 </r>
       </set>
       <set comment="band 7">
        <r>  0.1227 </r>
       </set>
       <set comment="band 8">
        <r>  0.0000 </r>
       </set>
       <set comment="band 9">
        <r>  0.0838 </r>
       </set>
       <set comment="band 10">
        <r>  0.0845 </r>
       </set>
       <set comment="band 11">
        <r>  0.2715 </r>
       </set>
      </set>
      <set comment="kpoint 25">
       <set comment="band 1">
        <r>  0.0000 </r>
       </set>
       <set comment="band 2">
        <r>  0.0000 </r>
       </set>
       <set comment="band 3">
        <r>  0.0195 </r>
       </set>
       <set comment="band 4">
        <r>  0.0000 </r>
       </set>
       <set comment="band 5">
        <r>  0.0000 </r>
       </set>
       <set comment="band 6">
        <r>  0.0000 </r>
       </set>
       <set comment="band 7">
        <r>  0.0000 </r>
       </set>
       <set comment="band 8">
        <r>  0.2522 </r>
       </set>
       <set comment="band 9">
        <r>  0.0000 </r>
       </set>
       <set comment="band 10">
        <r>  0.0000 </r>
       </set>
       <set comment="band 11">
        <r>  0.4785 </r>
       </set>
      </set>
      <set comment="kpoint 26">
       <set comment="band 1">
        <r>  0.0017 </r>
       </set>
       <set comment="band 2">
        <r>  0.0000 </r>
       </set>
       <set comment="band 3">
        <r>  0.0000 </r>
       </set>
       <set comment="band 4">
        <r>  0.0000 </r>
       </set>
       <set comment="band 5">
        <r>  0.0000 </r>
       </set>
       <set comment="band 6">
        <r>  0.0835 </r>
       </set>
       <set comment="band 7">
        <r>  0.0000 </r>
       </set>
       <set comment="band 8">
        <r>  0.0000 </r>
       </set>
       <set comment="band 9">
        <r>  0.0000 </r>
       </set>
       <set comment="band 10">
        <r>  0.0727 </r>
       </set>
       <set comment="band 11">
        <r>  0.6217 </r>
       </set>
      </set>
     </set>
    </set>
   </array>
  </projected>
 </calculation>
 <structure name="finalpos" >
  <crystal>
   <varray name="basis" >
    <v>      -1.43500000       1.43500000       1.43500000 </v>
    <v>       1.43500000      -1.43500000       1.43500000 </v>
    <v>       1.43500000       1.43500000      -1.43500000 </v>
   </varray>
   <i name="volume">     11.81995150 </i>
   <varray name="rec_basis" >
    <v>       0.00000000       0.34843206       0.34843206 </v>
    <v>       0.34843206       0.00000000       0.34843206 </v>
    <v>       0.34843206       0.34843206       0.00000000 </v>
   </varray>
  </crystal>
  <varray name="positions" >
   <v>       0.00000000       0.00000000       0.00000000 </v>
  </varray>
 </structure>
</modeling>
