unknown system                          
           1
    -1.435000    1.435000    1.435000
     1.435000   -1.435000    1.435000
     1.435000    1.435000   -1.435000
   Fe
   1
Direct configuration=     1
   0.00000000  0.00000000  0.00000000
