   13   13   90    1
  0.5021387E+02  0.5543717E-09  0.5543717E-09  0.2452643E-08  0.5000000E-15
  1.000000000000000E-004
  CAR 
 unknown system                          
  126   14   75
 
  0.1250000E+00  0.1250000E+00  0.0000000E+00  0.4166667E-01
   1      -20.618548
   2      -11.202951
   3       -9.506641
   4       -9.022658
   5       -8.785429
   6       -8.705921
   7       -8.690696
   8       -8.653977
   9       -8.543458
  10       -8.440188
  11       -8.134124
  12       -8.022620
  13       -8.009275
  14       -7.911683
  15       -7.811297
  16       -7.738925
  17       -7.380210
  18       -6.837884
  19       -6.630086
  20       -6.346518
  21       -6.096980
  22       -5.919907
  23       -5.845886
  24       -5.811068
  25       -5.768975
  26       -5.698295
  27       -5.549382
  28       -5.389342
  29       -5.374940
  30       -5.284627
  31       -5.259808
  32       -5.153654
  33       -5.060827
  34       -5.032072
  35       -4.984360
  36       -4.728151
  37       -4.571520
  38       -4.455775
  39       -4.431682
  40       -3.854481
  41       -3.635671
  42       -3.589881
  43       -3.566310
  44       -3.500600
  45       -3.335217
  46       -3.303753
  47       -3.025368
  48       -2.899945
  49       -2.824576
  50       -2.595563
  51       -2.524786
  52       -2.482763
  53       -2.392725
  54       -2.351510
  55       -2.331575
  56       -2.244594
  57       -2.146370
  58       -2.122278
  59       -2.038355
  60       -2.013514
  61       -1.972087
  62       -1.850058
  63       -1.827109
  64       -1.740199
  65       -1.650166
  66       -1.518182
  67       -1.397114
  68       -1.315736
  69       -0.486856
  70       -0.438577
  71       -0.414447
  72        0.069553
  73        0.486515
  74        1.064817
  75        1.657805
 
  0.0000000E+00  0.1250000E+00  0.0000000E+00  0.8333333E-01
   1      -20.616647
   2      -11.205185
   3       -9.499845
   4       -9.016727
   5       -8.823817
   6       -8.757496
   7       -8.662160
   8       -8.599228
   9       -8.528745
  10       -8.456013
  11       -8.132426
  12       -8.061178
  13       -7.977463
  14       -7.910847
  15       -7.811958
  16       -7.754598
  17       -7.383637
  18       -6.813048
  19       -6.656404
  20       -6.347853
  21       -6.046354
  22       -5.931240
  23       -5.844145
  24       -5.815863
  25       -5.752707
  26       -5.685995
  27       -5.569701
  28       -5.483224
  29       -5.345560
  30       -5.265264
  31       -5.223906
  32       -5.160298
  33       -5.124668
  34       -5.069727
  35       -4.925299
  36       -4.707868
  37       -4.611008
  38       -4.507021
  39       -4.376107
  40       -3.777643
  41       -3.623629
  42       -3.587863
  43       -3.567467
  44       -3.526761
  45       -3.375758
  46       -3.302280
  47       -3.027156
  48       -2.921077
  49       -2.848125
  50       -2.579807
  51       -2.511210
  52       -2.432956
  53       -2.399561
  54       -2.343361
  55       -2.274292
  56       -2.243084
  57       -2.161990
  58       -2.102408
  59       -2.074891
  60       -2.033556
  61       -1.952741
  62       -1.902661
  63       -1.826565
  64       -1.748605
  65       -1.718106
  66       -1.644278
  67       -1.479609
  68       -1.098936
  69       -0.552753
  70       -0.413338
  71       -0.287994
  72        0.183802
  73        0.614013
  74        0.912714
  75        1.721912
 
  0.3750000E+00  0.1250000E+00  0.0000000E+00  0.8333333E-01
   1      -20.607557
   2      -10.458049
   3       -8.927897
   4       -8.787866
   5       -8.438052
   6       -8.336139
   7       -8.306383
   8       -8.178618
   9       -8.046468
  10       -7.920142
  11       -7.810283
  12       -7.745756
  13       -7.633841
  14       -7.515849
  15       -7.382239
  16       -7.216298
  17       -7.068136
  18       -6.726274
  19       -6.581969
  20       -6.366359
  21       -6.343395
  22       -6.159740
  23       -6.131356
  24       -5.986866
  25       -5.809312
  26       -5.737526
  27       -5.715565
  28       -5.646228
  29       -5.428878
  30       -5.407905
  31       -5.328105
  32       -5.214135
  33       -5.194385
  34       -4.983743
  35       -4.945998
  36       -4.896427
  37       -4.796108
  38       -4.669617
  39       -4.470747
  40       -4.421793
  41       -4.279839
  42       -4.234401
  43       -4.179917
  44       -4.067190
  45       -3.984050
  46       -3.940891
  47       -3.752483
  48       -3.693660
  49       -3.586429
  50       -3.388129
  51       -3.291940
  52       -3.179403
  53       -3.097257
  54       -2.997683
  55       -2.867886
  56       -2.755239
  57       -2.616598
  58       -2.497872
  59       -2.416198
  60       -2.346751
  61       -2.266622
  62       -2.167701
  63       -2.108483
  64       -2.062326
  65       -1.950839
  66       -1.918320
  67       -1.685571
  68       -1.108477
  69       -0.922116
  70       -0.678403
  71       -0.155985
  72        1.180941
  73        1.361597
  74        1.436022
  75        2.024789
 
  0.2500000E+00  0.3750000E+00  0.0000000E+00  0.8333333E-01
   1      -20.612253
   2      -10.448930
   3       -8.928374
   4       -8.734042
   5       -8.509991
   6       -8.393408
   7       -8.251907
   8       -8.119588
   9       -8.108933
  10       -7.930132
  11       -7.791439
  12       -7.716668
  13       -7.681843
  14       -7.518798
  15       -7.328716
  16       -7.248026
  17       -7.015427
  18       -6.760987
  19       -6.520478
  20       -6.397145
  21       -6.337411
  22       -6.245169
  23       -6.068594
  24       -5.960414
  25       -5.813077
  26       -5.751195
  27       -5.685729
  28       -5.566819
  29       -5.509996
  30       -5.409472
  31       -5.290213
  32       -5.245038
  33       -5.140736
  34       -5.000099
  35       -4.941463
  36       -4.898091
  37       -4.802539
  38       -4.659768
  39       -4.526698
  40       -4.431767
  41       -4.279669
  42       -4.220434
  43       -4.190635
  44       -4.081082
  45       -3.994844
  46       -3.923741
  47       -3.822189
  48       -3.624927
  49       -3.530761
  50       -3.396890
  51       -3.282269
  52       -3.225324
  53       -3.106812
  54       -2.985395
  55       -2.835535
  56       -2.728343
  57       -2.553404
  58       -2.515027
  59       -2.455345
  60       -2.314018
  61       -2.250775
  62       -2.146180
  63       -2.046715
  64       -2.032589
  65       -1.984884
  66       -1.852516
  67       -1.684465
  68       -1.420063
  69       -1.056376
  70       -0.726018
  71       -0.049262
  72        0.985748
  73        1.248167
  74        1.643928
  75        2.115558
 
 -0.1250000E+00  0.2500000E+00  0.0000000E+00  0.8333333E-01
   1      -20.602946
   2      -10.468333
   3       -8.923472
   4       -8.760376
   5       -8.519792
   6       -8.330881
   7       -8.311963
   8       -8.107325
   9       -8.017876
  10       -7.914809
  11       -7.832060
  12       -7.714162
  13       -7.669483
  14       -7.530656
  15       -7.300934
  16       -7.257772
  17       -7.157042
  18       -6.715673
  19       -6.568400
  20       -6.406968
  21       -6.352414
  22       -6.173162
  23       -6.064070
  24       -6.004223
  25       -5.850989
  26       -5.774956
  27       -5.752357
  28       -5.596316
  29       -5.457877
  30       -5.415800
  31       -5.290966
  32       -5.206967
  33       -5.138584
  34       -5.021528
  35       -4.962175
  36       -4.916873
  37       -4.849237
  38       -4.665630
  39       -4.427482
  40       -4.368564
  41       -4.310215
  42       -4.298724
  43       -4.182408
  44       -4.116276
  45       -3.987929
  46       -3.865224
  47       -3.783207
  48       -3.622776
  49       -3.562103
  50       -3.368595
  51       -3.287838
  52       -3.245883
  53       -3.003351
  54       -2.964471
  55       -2.799732
  56       -2.736205
  57       -2.672587
  58       -2.578952
  59       -2.409317
  60       -2.337282
  61       -2.260929
  62       -2.205869
  63       -2.119728
  64       -2.049613
  65       -1.958756
  66       -1.832873
  67       -1.695366
  68       -1.227283
  69       -0.985059
  70       -0.578413
  71        0.027713
  72        1.116278
  73        1.369762
  74        1.559637
  75        2.260098
 
 -0.3750000E+00  0.1250000E+00  0.0000000E+00  0.8333333E-01
   1      -20.599082
   2       -9.856452
   3       -9.244926
   4       -8.428682
   5       -8.259741
   6       -8.168053
   7       -7.919695
   8       -7.815406
   9       -7.722880
  10       -7.653455
  11       -7.615552
  12       -7.418771
  13       -7.385519
  14       -7.275574
  15       -7.118082
  16       -6.998693
  17       -6.906548
  18       -6.772884
  19       -6.620354
  20       -6.592344
  21       -6.427633
  22       -6.353011
  23       -6.287150
  24       -6.226690
  25       -6.092911
  26       -6.013522
  27       -5.756497
  28       -5.692292
  29       -5.535916
  30       -5.396939
  31       -5.362322
  32       -5.271771
  33       -5.233615
  34       -5.207522
  35       -5.103999
  36       -5.022723
  37       -4.937596
  38       -4.824072
  39       -4.757713
  40       -4.685156
  41       -4.620154
  42       -4.561134
  43       -4.412795
  44       -4.171263
  45       -4.038827
  46       -3.973230
  47       -3.908092
  48       -3.834807
  49       -3.724192
  50       -3.645855
  51       -3.538804
  52       -3.448884
  53       -3.294969
  54       -3.192726
  55       -3.085930
  56       -3.022146
  57       -2.902142
  58       -2.724536
  59       -2.649514
  60       -2.611549
  61       -2.396997
  62       -2.304177
  63       -2.178749
  64       -2.098890
  65       -1.984782
  66       -1.930987
  67       -1.675196
  68       -1.142303
  69       -0.878606
  70       -0.312722
  71        0.197012
  72        0.606383
  73        1.363360
  74        2.169201
  75        2.469009
 
  0.5000000E+00 -0.3750000E+00  0.0000000E+00  0.8333333E-01
   1      -20.610354
   2       -9.811686
   3       -9.191569
   4       -8.551971
   5       -8.309412
   6       -8.120859
   7       -7.952451
   8       -7.848559
   9       -7.725864
  10       -7.681275
  11       -7.613445
  12       -7.453761
  13       -7.407834
  14       -7.231862
  15       -7.082230
  16       -6.971584
  17       -6.811943
  18       -6.728155
  19       -6.591861
  20       -6.513991
  21       -6.398101
  22       -6.322664
  23       -6.287825
  24       -6.180173
  25       -6.057881
  26       -5.934580
  27       -5.817865
  28       -5.678878
  29       -5.572701
  30       -5.450443
  31       -5.339223
  32       -5.318327
  33       -5.246694
  34       -5.213250
  35       -5.128456
  36       -5.019275
  37       -4.966016
  38       -4.820699
  39       -4.773139
  40       -4.713399
  41       -4.607478
  42       -4.495012
  43       -4.409592
  44       -4.157540
  45       -4.062603
  46       -3.997703
  47       -3.886348
  48       -3.828096
  49       -3.738920
  50       -3.629736
  51       -3.529580
  52       -3.479004
  53       -3.304661
  54       -3.223769
  55       -3.074657
  56       -3.034557
  57       -2.851740
  58       -2.737251
  59       -2.677282
  60       -2.571739
  61       -2.344239
  62       -2.263156
  63       -2.113330
  64       -2.038163
  65       -1.984770
  66       -1.888255
  67       -1.711327
  68       -1.617234
  69       -0.905798
  70       -0.331416
  71       -0.047412
  72        0.640516
  73        1.418364
  74        2.043958
  75        2.488919
 
 -0.1250000E+00  0.5000000E+00  0.0000000E+00  0.8333333E-01
   1      -20.601002
   2       -9.844393
   3       -9.252455
   4       -8.446716
   5       -8.231314
   6       -8.141699
   7       -7.966111
   8       -7.853615
   9       -7.724392
  10       -7.651582
  11       -7.581358
  12       -7.492335
  13       -7.385320
  14       -7.254800
  15       -7.096731
  16       -6.968555
  17       -6.880343
  18       -6.736586
  19       -6.634978
  20       -6.570400
  21       -6.428181
  22       -6.368373
  23       -6.266744
  24       -6.224959
  25       -6.111221
  26       -5.990313
  27       -5.765979
  28       -5.694210
  29       -5.533790
  30       -5.445832
  31       -5.343086
  32       -5.281808
  33       -5.234291
  34       -5.198405
  35       -5.094597
  36       -5.049842
  37       -4.903336
  38       -4.814714
  39       -4.753738
  40       -4.678889
  41       -4.636544
  42       -4.547319
  43       -4.388991
  44       -4.144605
  45       -4.105622
  46       -3.977068
  47       -3.882551
  48       -3.791843
  49       -3.758385
  50       -3.642223
  51       -3.544455
  52       -3.488783
  53       -3.357990
  54       -3.234210
  55       -3.105501
  56       -2.975236
  57       -2.888139
  58       -2.732708
  59       -2.683194
  60       -2.562368
  61       -2.348237
  62       -2.327373
  63       -2.144970
  64       -2.101436
  65       -2.033558
  66       -1.927603
  67       -1.663306
  68       -1.093205
  69       -0.879143
  70       -0.384174
  71        0.147218
  72        0.651057
  73        1.367757
  74        2.009729
  75        2.549438
 
 -0.1250000E+00  0.1250000E+00  0.0000000E+00  0.4166667E-01
   1      -20.610271
   2      -10.948498
   3       -9.244260
   4       -8.794619
   5       -8.760928
   6       -8.703825
   7       -8.535595
   8       -8.376994
   9       -8.317020
  10       -8.282224
  11       -8.024252
  12       -7.976760
  13       -7.874223
  14       -7.758898
  15       -7.610393
  16       -7.565281
  17       -7.340852
  18       -6.713157
  19       -6.672218
  20       -6.349649
  21       -6.040047
  22       -5.960819
  23       -5.922969
  24       -5.845913
  25       -5.771855
  26       -5.750979
  27       -5.597371
  28       -5.510141
  29       -5.362823
  30       -5.318595
  31       -5.282274
  32       -5.224313
  33       -5.103591
  34       -5.043480
  35       -4.926303
  36       -4.831341
  37       -4.795832
  38       -4.646393
  39       -4.424291
  40       -3.945413
  41       -3.913319
  42       -3.810277
  43       -3.687162
  44       -3.674000
  45       -3.483032
  46       -3.459593
  47       -3.394931
  48       -3.295960
  49       -3.194620
  50       -3.114442
  51       -2.809477
  52       -2.709449
  53       -2.644480
  54       -2.554870
  55       -2.533944
  56       -2.471824
  57       -2.436112
  58       -2.413021
  59       -2.234517
  60       -2.216272
  61       -2.174153
  62       -2.005858
  63       -1.966193
  64       -1.931636
  65       -1.826462
  66       -1.580477
  67       -1.423408
  68       -1.298435
  69       -0.928713
  70       -0.806965
  71       -0.003138
  72        0.760573
  73        0.886200
  74        1.611372
  75        1.826464
 
 -0.2500000E+00 -0.1250000E+00  0.0000000E+00  0.8333333E-01
   1      -20.614882
   2      -10.941959
   3       -9.267576
   4       -8.788126
   5       -8.739205
   6       -8.636555
   7       -8.543839
   8       -8.438463
   9       -8.377375
  10       -8.249383
  11       -8.008947
  12       -7.955194
  13       -7.875368
  14       -7.766143
  15       -7.656498
  16       -7.488272
  17       -7.333969
  18       -6.786082
  19       -6.605242
  20       -6.337056
  21       -6.092657
  22       -6.014035
  23       -5.935526
  24       -5.824894
  25       -5.770350
  26       -5.741617
  27       -5.543198
  28       -5.431133
  29       -5.340582
  30       -5.323314
  31       -5.271086
  32       -5.225603
  33       -5.140917
  34       -5.063263
  35       -4.921415
  36       -4.817002
  37       -4.759874
  38       -4.563142
  39       -4.512613
  40       -4.048552
  41       -3.904088
  42       -3.777466
  43       -3.698183
  44       -3.658764
  45       -3.502352
  46       -3.429744
  47       -3.358839
  48       -3.299993
  49       -3.195204
  50       -3.133199
  51       -2.853683
  52       -2.721349
  53       -2.619812
  54       -2.606862
  55       -2.570243
  56       -2.469233
  57       -2.381483
  58       -2.301605
  59       -2.238972
  60       -2.198316
  61       -2.134127
  62       -2.070024
  63       -1.983633
  64       -1.914639
  65       -1.832406
  66       -1.661322
  67       -1.344473
  68       -1.274489
  69       -1.057369
  70       -0.649671
  71       -0.216860
  72        0.431651
  73        0.989079
  74        1.638773
  75        1.842974
 
  0.3750000E+00  0.3750000E+00  0.0000000E+00  0.4166667E-01
   1      -20.613008
   2      -10.225871
   3       -9.063802
   4       -8.744096
   5       -8.331672
   6       -8.211318
   7       -8.125987
   8       -8.080004
   9       -7.924437
  10       -7.854498
  11       -7.768731
  12       -7.607249
  13       -7.577509
  14       -7.424025
  15       -7.192847
  16       -7.165288
  17       -6.816693
  18       -6.764520
  19       -6.539659
  20       -6.415236
  21       -6.386446
  22       -6.281360
  23       -6.103338
  24       -6.032471
  25       -5.887918
  26       -5.865604
  27       -5.772989
  28       -5.577062
  29       -5.482450
  30       -5.403025
  31       -5.332299
  32       -5.117050
  33       -5.111527
  34       -5.034375
  35       -4.890942
  36       -4.834398
  37       -4.804436
  38       -4.784442
  39       -4.690632
  40       -4.495754
  41       -4.460022
  42       -4.421416
  43       -4.390952
  44       -4.303750
  45       -3.996512
  46       -3.995987
  47       -3.960804
  48       -3.687532
  49       -3.655948
  50       -3.526084
  51       -3.342384
  52       -3.336239
  53       -3.232532
  54       -3.067707
  55       -3.052959
  56       -2.958550
  57       -2.883033
  58       -2.676375
  59       -2.675314
  60       -2.591805
  61       -2.246719
  62       -2.238592
  63       -2.095670
  64       -2.007287
  65       -1.884114
  66       -1.780908
  67       -1.599349
  68       -1.512106
  69       -0.640847
  70        0.044248
  71        0.191017
  72        0.546259
  73        1.127085
  74        1.344587
  75        2.142461
 
  0.0000000E+00  0.3750000E+00  0.0000000E+00  0.8333333E-01
   1      -20.601710
   2      -10.252896
   3       -9.129248
   4       -8.647133
   5       -8.325013
   6       -8.268650
   7       -8.153244
   8       -7.975153
   9       -7.896179
  10       -7.826901
  11       -7.787807
  12       -7.626621
  13       -7.520386
  14       -7.473629
  15       -7.239068
  16       -7.091267
  17       -7.032946
  18       -6.706469
  19       -6.532594
  20       -6.472607
  21       -6.363716
  22       -6.261210
  23       -6.131466
  24       -6.076163
  25       -5.970461
  26       -5.934491
  27       -5.724802
  28       -5.639353
  29       -5.456724
  30       -5.350155
  31       -5.275186
  32       -5.169961
  33       -5.095079
  34       -4.995689
  35       -4.942334
  36       -4.890706
  37       -4.818933
  38       -4.733386
  39       -4.596581
  40       -4.512533
  41       -4.467020
  42       -4.417203
  43       -4.373483
  44       -4.282112
  45       -4.087402
  46       -3.951203
  47       -3.832858
  48       -3.770718
  49       -3.698021
  50       -3.487949
  51       -3.392364
  52       -3.299471
  53       -3.223598
  54       -3.159016
  55       -3.014705
  56       -2.938069
  57       -2.865595
  58       -2.786131
  59       -2.678509
  60       -2.588849
  61       -2.332042
  62       -2.218297
  63       -2.087538
  64       -2.058361
  65       -1.983808
  66       -1.818949
  67       -1.604395
  68       -0.978008
  69       -0.385416
  70        0.094257
  71        0.190358
  72        0.694788
  73        1.035028
  74        1.404265
  75        1.947161
 
 -0.3750000E+00  0.3750000E+00  0.0000000E+00  0.4166667E-01
   1      -20.605015
   2       -9.326820
   3       -9.195048
   4       -8.725777
   5       -8.224802
   6       -7.944818
   7       -7.877703
   8       -7.633769
   9       -7.509913
  10       -7.447309
  11       -7.383538
  12       -7.338208
  13       -7.256485
  14       -7.125047
  15       -7.037009
  16       -6.904744
  17       -6.873158
  18       -6.788901
  19       -6.766111
  20       -6.640610
  21       -6.559014
  22       -6.394601
  23       -6.329538
  24       -6.276227
  25       -6.090252
  26       -5.991237
  27       -5.899289
  28       -5.823872
  29       -5.746498
  30       -5.687032
  31       -5.657519
  32       -5.565897
  33       -5.508133
  34       -5.444178
  35       -5.072491
  36       -5.023807
  37       -4.943258
  38       -4.891494
  39       -4.832166
  40       -4.780685
  41       -4.678917
  42       -4.567964
  43       -4.231467
  44       -4.168539
  45       -4.031875
  46       -4.016936
  47       -3.750895
  48       -3.686295
  49       -3.680158
  50       -3.552955
  51       -3.519981
  52       -3.362940
  53       -3.230325
  54       -3.115641
  55       -2.989912
  56       -2.868167
  57       -2.705511
  58       -2.703685
  59       -2.594046
  60       -2.528624
  61       -2.495680
  62       -2.362905
  63       -2.266896
  64       -2.252197
  65       -2.213231
  66       -2.140672
  67       -1.919305
  68       -1.893438
  69       -1.579909
  70       -0.673221
  71        0.072618
  72        0.791183
  73        1.219304
  74        2.517341
  75        3.249127
 
  0.2500000E+00 -0.3750000E+00  0.0000000E+00  0.8333333E-01
   1      -20.600328
   2       -9.379107
   3       -9.214698
   4       -8.678064
   5       -8.113638
   6       -7.960721
   7       -7.845850
   8       -7.626210
   9       -7.540778
  10       -7.456145
  11       -7.394442
  12       -7.357148
  13       -7.234335
  14       -7.125548
  15       -7.056602
  16       -6.959173
  17       -6.893417
  18       -6.772273
  19       -6.748045
  20       -6.696209
  21       -6.615632
  22       -6.459225
  23       -6.344400
  24       -6.236718
  25       -6.085067
  26       -5.966224
  27       -5.874402
  28       -5.824704
  29       -5.779426
  30       -5.698164
  31       -5.647182
  32       -5.591269
  33       -5.508283
  34       -5.417249
  35       -5.073281
  36       -4.985400
  37       -4.895032
  38       -4.868726
  39       -4.848730
  40       -4.760560
  41       -4.694629
  42       -4.597681
  43       -4.232005
  44       -4.191000
  45       -4.074236
  46       -3.938430
  47       -3.831725
  48       -3.684450
  49       -3.657909
  50       -3.580852
  51       -3.513273
  52       -3.334982
  53       -3.186298
  54       -3.105314
  55       -3.050684
  56       -2.849818
  57       -2.718674
  58       -2.673701
  59       -2.618892
  60       -2.528348
  61       -2.420827
  62       -2.407783
  63       -2.323626
  64       -2.265189
  65       -2.221185
  66       -2.132263
  67       -1.955938
  68       -1.784182
  69       -1.490574
  70       -0.713392
  71        0.341584
  72        0.564797
  73        1.315259
  74        2.531171
  75        3.275410
