       N       E                     dE             d eps       ncg     rms          rms(c)
DAV:   1    -0.731557218614E+02   -0.73156E+02   -0.98417E-02  3072   0.219E+00    0.118E+00
DAV:   2    -0.743140264119E+02   -0.11583E+01   -0.34109E+00  3976   0.151E+01    0.789E+00
DAV:   3    -0.731233738608E+02    0.11907E+01   -0.24473E+00  3976   0.127E+01    0.712E-01
DAV:   4    -0.731271705088E+02   -0.37966E-02   -0.67706E-02  3192   0.149E+00    0.213E-01
DAV:   5    -0.731272011554E+02   -0.30647E-04   -0.58371E-03  2976   0.561E-01    0.835E-02
DAV:   6    -0.731271906647E+02    0.10491E-04   -0.73292E-04  2128   0.249E-01
   1 F= -.73127191E+02 E0= -.73114109E+02  d E =-.731272E+02
       N       E                     dE             d eps       ncg     rms          rms(c)
DAV:   1    -0.731274273785E+02   -0.22622E-03   -0.10965E-02  2151   0.459E-01    0.560E-02
DAV:   2    -0.731277709561E+02   -0.34358E-03   -0.21798E-03  2680   0.357E-01    0.145E-01
DAV:   3    -0.731274439491E+02    0.32701E-03   -0.11594E-03  1565   0.295E-01    0.500E-02
DAV:   4    -0.731274182700E+02    0.25679E-04   -0.18622E-04  1155   0.105E-01
   2 F= -.73127418E+02 E0= -.73114269E+02  d E =-.227605E-03
       N       E                     dE             d eps       ncg     rms          rms(c)
DAV:   1    -0.731276511769E+02   -0.20723E-03   -0.45869E-03  2112   0.280E-01    0.150E-02
DAV:   2    -0.731276707476E+02   -0.19571E-04   -0.11978E-04  1233   0.581E-02
   3 F= -.73127671E+02 E0= -.73114520E+02  d E =-.252478E-03
