 vasp.5.2.12 11Nov11 complex                                                    
  
 executed on             LinuxIFC date 2012.09.18  22:42:07
 running on    3 nodes
 each image running on    1 nodes
 distr:  one band on    1 nodes,    1 groups


--------------------------------------------------------------------------------------------------------


 INCAR:
 POTCAR:   PAW_PBE O 08Apr2002                    
 POTCAR:   PAW_PBE Pt 05Jan2001                   
 POTCAR:   PAW_PBE O 08Apr2002                    
   VRHFIN =O: s2p4                                                              
   LEXCH  = PE                                                                  
   EATOM  =   432.3788 eV,   31.7789 Ry                                         
                                                                                
   TITEL  = PAW_PBE O 08Apr2002                                                 
   LULTRA =        F    use ultrasoft PP ?                                      
   IUNSCR =        0    unscreen: 0-lin 1-nonlin 2-no                           
   RPACOR =     .000    partial core radius                                     
   POMASS =   16.000; ZVAL   =    6.000    mass and valenz                      
   RCORE  =    1.520    outmost cutoff radius                                   
   RWIGS  =    1.550; RWIGS  =     .820    wigner-seitz radius (au A)           
   ENMAX  =  400.000; ENMIN  =  300.000 eV                                      
   ICORE  =        2    local potential                                         
   LCOR   =        T    correct aug charges                                     
   LPAW   =        T    paw PP                                                  
   EAUG   =  605.392                                                            
   DEXC   =     .000                                                            
   RMAX   =    2.264    core radius for proj-oper                               
   RAUG   =    1.300    factor for augmentation sphere                          
   RDEP   =    1.550    radius for radial grids                                 
   QCUT   =   -5.520; QGAM   =   11.041    optimization parameters              
                                                                                
   Description                                                                  
     l     E      TYP  RCUT    TYP  RCUT                                        
     0   .000     23  1.200                                                     
     0  -.700     23  1.200                                                     
     1   .000     23  1.520                                                     
     1   .600     23  1.520                                                     
     2   .000      7  1.500                                                     
  local pseudopotential read in
  atomic valenz-charges read in
  non local Contribution for L=           0  read in
    real space projection operators read in
  non local Contribution for L=           0  read in
    real space projection operators read in
  non local Contribution for L=           1  read in
    real space projection operators read in
  non local Contribution for L=           1  read in
    real space projection operators read in
    PAW grid and wavefunctions read in
 
   number of l-projection  operators is LMAX  =           4
   number of lm-projection operators is LMMAX =           8
 
 POTCAR:   PAW_PBE Pt 05Jan2001                   
   VRHFIN =Pt: s1d9                                                             
   LEXCH  = PE                                                                  
   EATOM  =   729.1171 eV,   53.5886 Ry                                         
                                                                                
   TITEL  = PAW_PBE Pt 05Jan2001                                                
   LULTRA =        F    use ultrasoft PP ?                                      
   IUNSCR =        1    unscreen: 0-lin 1-nonlin 2-no                           
   RPACOR =    2.330    partial core radius                                     
   POMASS =  195.080; ZVAL   =   10.000    mass and valenz                      
   RCORE  =    2.500    outmost cutoff radius                                   
   RWIGS  =    2.750; RWIGS  =    1.455    wigner-seitz radius (au A)           
   ENMAX  =  230.283; ENMIN  =  172.712 eV                                      
   RCLOC  =    1.896    cutoff for local pot                                    
   LCOR   =        T    correct aug charges                                     
   LPAW   =        T    paw PP                                                  
   EAUG   =  358.966                                                            
   DEXC   =    -.039                                                            
   RMAX   =    3.038    core radius for proj-oper                               
   RAUG   =    1.300    factor for augmentation sphere                          
   RDEP   =    2.590    radius for radial grids                                 
   QCUT   =   -4.114; QGAM   =    8.228    optimization parameters              
                                                                                
   Description                                                                  
     l     E      TYP  RCUT    TYP  RCUT                                        
     2   .000     23  2.500                                                     
     2   .000     23  2.500                                                     
     0   .000     23  2.500                                                     
     0   .000     23  2.500                                                     
     1  -.200     23  2.500                                                     
     1  1.500     23  2.500                                                     
     3   .000      7   .000                                                     
  local pseudopotential read in
  partial core-charges read in
  atomic valenz-charges read in
  non local Contribution for L=           2  read in
    real space projection operators read in
  non local Contribution for L=           2  read in
    real space projection operators read in
  non local Contribution for L=           0  read in
    real space projection operators read in
  non local Contribution for L=           0  read in
    real space projection operators read in
  non local Contribution for L=           1  read in
    real space projection operators read in
  non local Contribution for L=           1  read in
    real space projection operators read in
    PAW grid and wavefunctions read in
 
   number of l-projection  operators is LMAX  =           6
   number of lm-projection operators is LMMAX =          18
 
 PAW_PBE O 08Apr2002                    :
 energy of atom  1       EATOM= -432.3788
 kinetic energy error for atom=    0.3782 (will be added to EATOM!!)
 PAW_PBE Pt 05Jan2001                   :
 energy of atom  2       EATOM= -729.1171
 kinetic energy error for atom=    0.0144 (will be added to EATOM!!)
 
 
 POSCAR:  O Pt                                   
  positions in cartesian coordinates
  No initial velocities read in
 exchange correlation table for  LEXCH =        8
   RHO(1)=    0.500       N(1)  =     2000
   RHO(2)=  100.500       N(2)  =     4000
 
 POSCAR:  O Pt                                   
  positions in cartesian coordinates
  No initial velocities read in
 
 POSCAR:  O Pt                                   
  positions in cartesian coordinates
  No initial velocities read in
 


--------------------------------------------------------------------------------------------------------


 ion  position               nearest neighbor table
   1  0.292  0.292  0.649-  11 2.00  12 2.00  13 2.44
   2  0.167  0.167  0.408-   4 2.77   4 2.77   5 2.77   5 2.77   3 2.77   3 2.77   6 2.77   9 2.77
                             7 2.77
   3  0.667  0.167  0.408-   5 2.77   4 2.77   5 2.77   4 2.77   2 2.77   2 2.77   7 2.77   8 2.77
                             6 2.77
   4  0.167  0.667  0.408-   2 2.77   2 2.77   3 2.77   3 2.77   5 2.77   5 2.77   7 2.77   8 2.77
                             9 2.77
   5  0.667  0.667  0.408-   3 2.77   2 2.77   3 2.77   2 2.77   4 2.77   4 2.77   6 2.77   9 2.77
                             8 2.77
   6  0.833  0.333  0.500-   8 2.77   8 2.77   9 2.77   9 2.77   7 2.77   7 2.77   5 2.77  12 2.77
                             2 2.77  10 2.77  13 2.77   3 2.77
   7  0.333  0.333  0.500-   9 2.77   8 2.77   9 2.77   8 2.77   6 2.77   6 2.77   4 2.77  13 2.77
                             3 2.77  12 2.77  11 2.77   2 2.77
   8  0.833  0.833  0.500-   6 2.77   6 2.77   7 2.77   7 2.77   9 2.77   9 2.77   4 2.77  10 2.77
                             3 2.77  11 2.77  12 2.77   5 2.77
   9  0.333  0.833  0.500-   7 2.77   6 2.77   7 2.77   6 2.77   8 2.77   8 2.77   5 2.77  11 2.77
                             2 2.77  10 2.77  13 2.77   4 2.77
  10  0.000  0.000  0.592-  12 2.77  12 2.77  13 2.77  13 2.77  11 2.77  11 2.77   8 2.77   6 2.77
                             9 2.77
  11  0.500  0.000  0.592-   1 2.00  13 2.77  12 2.77  13 2.77  12 2.77  10 2.77  10 2.77   9 2.77
                             8 2.77   7 2.77
  12  0.000  0.500  0.592-   1 2.00  10 2.77  10 2.77  11 2.77  11 2.77  13 2.77  13 2.77   6 2.77
                             7 2.77   8 2.77
  13  0.500  0.500  0.592-   1 2.44  11 2.77  10 2.77  11 2.77  10 2.77  12 2.77  12 2.77   7 2.77
                             6 2.77   9 2.77
 
  LATTYP: Found a hexagonal cell.
 ALAT       =     5.5437171645
 C/A-ratio  =     4.4241842400
  
  Lattice vectors:
  
 A1 = (   2.7718585823,  -4.8009998959,   0.0000000000)
 A2 = (  -5.5437171645,   0.0000000000,   0.0000000000)
 A3 = (   0.0000000000,   0.0000000000, -24.5264261104)
 Subroutine PRICEL returns:
 Original cell was already a primitive cell.
 

Analysis of symmetry for initial positions (statically):

 Routine SETGRP: Setting up the symmetry group for a 
 hexagonal supercell.


 Subroutine GETGRP returns: Found  2 space group operations
 (whereof  2 operations were pure point group operations)
 out of a pool of 24 trial point group operations.


The static configuration has the point symmetry C_1h.

Analysis of symmetry for dynamics (positions and initial velocities):

 Subroutine DYNSYM returns: Found  2 space group operations
 (whereof  2 operations were pure point group operations)
 out of a pool of  2 trial space group operations
 (whereof  2 operations were pure point group operations)
 and found also     1 'primitive' translations


The dynamic configuration has the point symmetry C_1h.

Analysis of constrained symmetry for selective dynamics:

 Subroutine DYNSYM returns: Found  2 space group operations
 (whereof  2 operations were pure point group operations)
 out of a pool of  2 trial space group operations
 (whereof  2 operations were pure point group operations)
 and found also     1 'primitive' translations


The constrained configuration has the point symmetry C_1h.
 
 
 KPOINTS: KPOINTS created by Atomic Simulation Env

Automatic generation of k-mesh.
 
 Subroutine IBZKPT returns following result:
 ===========================================
 
 Found     14 irreducible k-points:
 
 Following reciprocal coordinates:
            Coordinates               Weight
  0.125000  0.125000  0.000000     16.000000
  0.000000  0.125000  0.000000     32.000000
  0.375000  0.125000  0.000000     32.000000
  0.250000  0.375000  0.000000     32.000000
 -0.125000  0.250000  0.000000     32.000000
 -0.375000  0.125000  0.000000     32.000000
  0.500000 -0.375000  0.000000     32.000000
 -0.125000  0.500000  0.000000     32.000000
 -0.125000  0.125000  0.000000     16.000000
 -0.250000 -0.125000  0.000000     32.000000
  0.375000  0.375000  0.000000     16.000000
  0.000000  0.375000  0.000000     32.000000
 -0.375000  0.375000  0.000000     16.000000
  0.250000 -0.375000  0.000000     32.000000
 
 Following cartesian coordinates:
            Coordinates               Weight
  0.022548  0.013018  0.000000     16.000000
  0.000000  0.026036  0.000000     32.000000
  0.067644 -0.013018  0.000000     32.000000
  0.045096  0.052072  0.000000     32.000000
 -0.022548  0.065091  0.000000     32.000000
 -0.067644  0.065091  0.000000     32.000000
  0.090192 -0.130181  0.000000     32.000000
 -0.022548  0.117163  0.000000     32.000000
 -0.022548  0.039054  0.000000     16.000000
 -0.045096  0.000000  0.000000     32.000000
  0.067644  0.039054  0.000000     16.000000
  0.000000  0.078109  0.000000     32.000000
 -0.067644  0.117163  0.000000     16.000000
  0.045096 -0.104145  0.000000     32.000000
 


--------------------------------------------------------------------------------------------------------




 Dimension of arrays:
   k-points           NKPTS =     14   k-points in BZ     NKDIM =     14   number of bands    NBANDS=     75
   number of dos      NEDOS =    301   number of ions     NIONS =     13
   non local maximal  LDIM  =      6   non local SUM 2l+1 LMDIM =     18
   total plane-waves  NPLWV =  87808
   max r-space proj   IRMAX =      1   max aug-charges    IRDMAX=   8346
   dimension x,y,z NGX =    28 NGY =   28 NGZ =  112
   dimension x,y,z NGXF=    56 NGYF=   56 NGZF=  224
   support grid    NGXF=    56 NGYF=   56 NGZF=  224
   ions per type =               1  12
 NGX,Y,Z   is equivalent  to a cutoff of   8.40,  8.40,  7.59 a.u.
 NGXF,Y,Z  is equivalent  to a cutoff of  16.79, 16.79, 15.18 a.u.


 I would recommend the setting:
   dimension x,y,z NGX =    25 NGY =   25 NGZ =  112
 SYSTEM =  unknown system                          
 POSCAR =   O Pt                                   

 Startparameter for this run:
   NWRITE =      2    write-flag & timer
   PREC   = normal    normal or accurate (medium, high low for compatibility)
   ISTART =      1    job   : 0-new  1-cont  2-samecut
   ICHARG =      0    charge: 1-file 2-atom 10-const
   ISPIN  =      1    spin polarized calculation?
   LNONCOLLINEAR =      F non collinear calculations
   LSORBIT =      F    spin-orbit coupling
   INIWAV =      1    electr: 0-lowe 1-rand  2-diag
   LASPH  =      F    aspherical Exc in radial PAW
   METAGGA=      F    non-selfconsistent MetaGGA calc.

 Electronic Relaxation 1
   ENCUT  =  350.0 eV  25.72 Ry    5.07 a.u.   8.46  8.46 37.41*2*pi/ulx,y,z
   ENINI  =  350.0     initial cutoff
   ENAUG  =  605.4 eV  augmentation charge cutoff
   NELM   =     60;   NELMIN=  2; NELMDL=  0     # of ELM steps 
   EDIFF  = 0.1E-03   stopping-criterion for ELM
   LREAL  =      F    real-space projection
   NLSPLINE    = F    spline interpolate recip. space projectors
   LCOMPAT=      F    compatible to vasp.4.4
   GGA_COMPAT  = T    GGA compatible to vasp.4.4-vasp.4.6
   LMAXPAW     = -100 max onsite density
   LMAXMIX     =    2 max onsite mixed and CHGCAR
   VOSKOWN=      0    Vosko Wilk Nusair interpolation
   ROPT   =    0.00000   0.00000
 Ionic relaxation
   EDIFFG = 0.1E-02   stopping-criterion for IOM
   NSW    =     90    number of steps for IOM
   NBLOCK =      1;   KBLOCK =     90    inner block; outer block 
   IBRION =      1    ionic relax: 0-MD 1-quasi-New 2-CG
   NFREE  =      0    steps in history (QN), initial steepest desc. (CG)
   ISIF   =      2    stress and relaxation
   IWAVPR =     11    prediction:  0-non 1-charg 2-wave 3-comb
   ISYM   =      2    0-nonsym 1-usesym 2-fastsym
   LCORR  =      T    Harris-Foulkes like correction to forces

   POTIM  = 0.5000    time-step for ionic-motion
   TEIN   =    0.0    initial temperature
   TEBEG  =    0.0;   TEEND  =   0.0 temperature during run
   SMASS  =  -3.00    Nose mass-parameter (am)
   estimated Nose-frequenzy (Omega)   =  0.10E-29 period in steps =****** mass=  -0.702E-27a.u.
   SCALEE = 1.0000    scale energy and forces
   NPACO  =    256;   APACO  = 16.0  distance and # of slots for P.C.
   PSTRESS=    0.0 pullay stress

  Mass of Ions in am
   POMASS =  16.00195.08
  Ionic Valenz
   ZVAL   =   6.00 10.00
  Atomic Wigner-Seitz radii
   RWIGS  =  -1.00 -1.00
  virtual crystal weights 
   VCA    =   1.00  1.00
   NELECT =     126.0000    total number of electrons
   NUPDOWN=      -1.0000    fix difference up-down

 DOS related values:
   EMIN   =  10.00;   EMAX   =-10.00  energy-range for DOS
   EFERMI =   0.00
   ISMEAR =     1;   SIGMA  =   0.20  broadening in eV -4-tet -1-fermi 0-gaus

 Electronic relaxation 2 (details)
   IALGO  =     38    algorithm
   LDIAG  =      T    sub-space diagonalisation (order eigenvalues)
   LSUBROT=      T    optimize rotation matrix (better conditioning)
   TURBO    =      0    0=normal 1=particle mesh
   IRESTART =      0    0=no restart 2=restart with 2 vectors
   NREBOOT  =      0    no. of reboots
   NMIN     =      0    reboot dimension
   EREF     =   0.00    reference energy to select bands
   IMIX   =      4    mixing-type and parameters
     AMIX     =   0.40;   BMIX     =  1.00
     AMIX_MAG =   1.60;   BMIX_MAG =  1.00
     AMIN     =   0.10
     WC   =   100.;   INIMIX=   1;  MIXPRE=   1

 Intra band minimization:
   WEIMIN = 0.0010     energy-eigenvalue tresh-hold
   EBREAK =  0.33E-06  absolut break condition
   DEPER  =   0.30     relativ break condition  

   TIME   =   0.40     timestep for ELM

  volume/ion in A,a.u.               =      50.21       338.86
  Fermi-wavevector in a.u.,A,eV,Ry     =   0.946112  1.787893 12.178961  0.895128
  Thomas-Fermi vector in A             =   2.074079
 
 Write flags
   LWAVE  =      T    write WAVECAR
   LCHARG =      T    write CHGCAR
   LVTOT  =      F    write LOCPOT, total local potential
   LVHAR  =      F    write LOCPOT, Hartree potential only
   LELF   =      F    write electronic localiz. function (ELF)
   LORBIT =      0    0 simple, 1 ext, 2 COOP (PROOUT)


 Dipole corrections
   LMONO  =      F    monopole corrections only (constant potential shift)
   LDIPOL =      F    correct potential (dipole corrections)
   IDIPOL =      0    1-x, 2-y, 3-z, 4-all directions 
   EPSILON=  1.0000000 bulk dielectric constant

 Exchange correlation treatment:
   GGA     =    --    GGA type
   LEXCH   =     8    internal setting for exchange type
   VOSKOWN=      0    Vosko Wilk Nusair interpolation
   LHFCALC =     F    Hartree Fock is set to
   LHFONE  =     F    Hartree Fock one center treatment
   AEXX    =    0.0000 exact exchange contribution

 Linear response parameters
   LEPSILON=     F    determine dielectric tensor
   LRPA    =     F    only Hartree local field effects (RPA)
   LNABLA  =     F    use nabla operator in PAW spheres
   LVEL    =     F    velocity operator in full k-point grid
   LINTERFAST=   F  fast interpolation
   KINTER  =     0    interpolate to denser k-point grid
   CSHIFT  =0.1000    complex shift for real part using Kramers Kronig
   OMEGAMAX=  -1.0    maximum frequency
   RTIME   =    0.100 relaxation time in fs

 Orbital magnetization related:
   ORBITALMAG=     F  switch on orbital magnetization
   LCHIMAG   =     F  perturbation theory with respect to B field
   DQ        =  0.001000  dq finite difference perturbation B field



--------------------------------------------------------------------------------------------------------


 quasi-Newton-method for relaxation of ions
   using selective dynamics as specified on POSCAR
   WARNING: If single coordinates had been selected the selection of coordinates
            is made according to the corresponding   d i r e c t   coordinates!
            Don't support selection of single cartesian coordinates -- sorry ...
  !
 charge density and potential will be updated during run
 non-spin polarized calculation
 Variant of blocked Davidson
 Davidson routine will perform the subspace rotation
 perform sub-space diagonalisation
    after iterative eigenvector-optimisation
 modified Broyden-mixing scheme, WC =      100.0
 initial mixing is a Kerker type mixing with AMIX =  0.4000 and BMIX =      1.0000
 Hartree-type preconditioning will be used
 using additional bands           12
 reciprocal scheme for non local part
 use partial core corrections
 calculate Harris-corrections to forces 
   (improved forces if not selfconsistent)
 use gradient corrections 
 use of overlap-Matrix (Vanderbilt PP)
 Methfessel and Paxton  Order N= 1 SIGMA  =   0.20


--------------------------------------------------------------------------------------------------------


  energy-cutoff  :      350.00
  volume of cell :      652.78
      direct lattice vectors                 reciprocal lattice vectors
     5.543717165  0.000000000  0.000000000     0.180384383 -0.104144972  0.000000000
     2.771858582  4.800999896  0.000000000     0.000000000  0.208289944  0.000000000
     0.000000000  0.000000000 24.526426110     0.000000000  0.000000000  0.040772349

  length of vectors
     5.543717165  5.543717165 24.526426110     0.208289944  0.208289944  0.040772349


 
 old parameters found on file WAVECAR:
  energy-cutoff  :      350.00
  volume of cell :      652.78
      direct lattice vectors                 reciprocal lattice vectors
     5.543717165  0.000000000  0.000000000     0.180384383 -0.104144972  0.000000000
     2.771858582  4.800999896  0.000000000     0.000000000  0.208289944  0.000000000
     0.000000000  0.000000000 24.526426110     0.000000000  0.000000000  0.040772349

  length of vectors

 
 k-points in units of 2pi/SCALE and weight: KPOINTS created by Atomic Simulation Env
   0.02254805  0.01301812  0.00000000       0.042
   0.00000000  0.02603624  0.00000000       0.083
   0.06764414 -0.01301812  0.00000000       0.083
   0.04509610  0.05207249  0.00000000       0.083
  -0.02254805  0.06509061  0.00000000       0.083
  -0.06764414  0.06509061  0.00000000       0.083
   0.09019219 -0.13018122  0.00000000       0.083
  -0.02254805  0.11716309  0.00000000       0.083
  -0.02254805  0.03905436  0.00000000       0.042
  -0.04509610  0.00000000  0.00000000       0.083
   0.06764414  0.03905436  0.00000000       0.042
   0.00000000  0.07810873  0.00000000       0.083
  -0.06764414  0.11716309  0.00000000       0.042
   0.04509610 -0.10414497  0.00000000       0.083
 
 k-points in reciprocal lattice and weights: KPOINTS created by Atomic Simulation Env
   0.12500000  0.12500000  0.00000000       0.042
   0.00000000  0.12500000  0.00000000       0.083
   0.37500000  0.12500000  0.00000000       0.083
   0.25000000  0.37500000  0.00000000       0.083
  -0.12500000  0.25000000  0.00000000       0.083
  -0.37500000  0.12500000  0.00000000       0.083
   0.50000000 -0.37500000  0.00000000       0.083
  -0.12500000  0.50000000  0.00000000       0.083
  -0.12500000  0.12500000  0.00000000       0.042
  -0.25000000 -0.12500000  0.00000000       0.083
   0.37500000  0.37500000  0.00000000       0.042
   0.00000000  0.37500000  0.00000000       0.083
  -0.37500000  0.37500000  0.00000000       0.042
   0.25000000 -0.37500000  0.00000000       0.083
 
 position of ions in fractional coordinates (direct lattice) 
   0.29166667  0.29166667  0.64898894
   0.16666667  0.16666667  0.40772349
   0.66666667  0.16666667  0.40772349
   0.16666667  0.66666667  0.40772349
   0.66666667  0.66666667  0.40772349
   0.83333333  0.33333333  0.50000000
   0.33333333  0.33333333  0.50000000
   0.83333333  0.83333333  0.50000000
   0.33333333  0.83333333  0.50000000
   0.00000000  0.00000000  0.59227651
   0.50000000  0.00000000  0.59227651
   0.00000000  0.50000000  0.59227651
   0.50000000  0.50000000  0.59227651
 
 position of ions in cartesian coordinates  (Angst):
   2.42537626  1.40029164 15.91737919
   1.38592929  0.80016665 10.00000000
   4.15778787  0.80016665 10.00000000
   2.77185858  3.20066660 10.00000000
   5.54371716  3.20066660 10.00000000
   5.54371716  1.60033330 12.26321306
   2.77185858  1.60033330 12.26321306
   6.92964646  4.00083325 12.26321306
   4.15778787  4.00083325 12.26321306
   0.00000000  0.00000000 14.52642611
   2.77185858  0.00000000 14.52642611
   1.38592929  2.40049995 14.52642611
   4.15778787  2.40049995 14.52642611
 


--------------------------------------------------------------------------------------------------------


 k-point  1 :  0.12500.12500.0000  plane waves:    9745
 k-point  2 :  0.00000.12500.0000  plane waves:    9745
 k-point  3 :  0.37500.12500.0000  plane waves:    9712
 k-point  4 :  0.25000.37500.0000  plane waves:    9712
 k-point  5 :  -.12500.25000.0000  plane waves:    9712
 k-point  6 :  -.37500.12500.0000  plane waves:    9685
 k-point  7 :  0.5000-.37500.0000  plane waves:    9685
 k-point  8 :  -.12500.50000.0000  plane waves:    9685
 k-point  9 :  -.12500.12500.0000  plane waves:    9739
 k-point 10 :  -.2500-.12500.0000  plane waves:    9739
 k-point 11 :  0.37500.37500.0000  plane waves:    9668
 k-point 12 :  0.00000.37500.0000  plane waves:    9668
 k-point 13 :  -.37500.37500.0000  plane waves:    9684
 k-point 14 :  0.2500-.37500.0000  plane waves:    9684

 maximum and minimum number of plane-waves per node :      9745     9668

 maximum number of plane-waves:      9745
 maximum index in each direction: 
   IXMAX=    8   IYMAX=    8   IZMAX=   37
   IXMIN=   -8   IYMIN=   -8   IZMIN=  -37

 WARNING: aliasing errors must be expected set NGX to  34 to avoid them
 WARNING: aliasing errors must be expected set NGY to  34 to avoid them
 WARNING: aliasing errors must be expected set NGZ to 150 to avoid them
 aliasing errors are usually negligible using standard VASP settings
 and one can safely disregard these warnings

 serial   3D FFT for wavefunctions
 parallel 3D FFT for charge:
    minimum data exchange during FFTs selected (reduces bandwidth)


 total amount of memory used by VASP on root node   306212. kBytes
========================================================================

   base      :      30000. kBytes
   nonl-proj :      41318. kBytes
   fftplans  :      24100. kBytes
   grid      :      43113. kBytes
   one-center:        202. kBytes
   wavefun   :     167479. kBytes
 
 Broyden mixing: mesh for mixing (old mesh)
   NGX = 17   NGY = 17   NGZ = 75
  (NGX  = 56   NGY  = 56   NGZ  =224)
  gives a total of  21675 points

 charge density for first step will be calculated from the start-wavefunctions


--------------------------------------------------------------------------------------------------------


 Maximum index for augmentation-charges         7918 (set IRDMAX)


--------------------------------------------------------------------------------------------------------


 initial charge from wavefunction
 First call to EWALD:  gamma=   0.204
 Maximum number of real-space cells 5x 5x 1
 Maximum number of reciprocal cells 2x 2x 7

    FEWALD:  cpu time    0.00: real time    0.01


----------------------------------------- Iteration    1(   1)  ---------------------------------------


    POTLOK:  cpu time    1.04: real time    1.04
    SETDIJ:  cpu time    0.09: real time    0.09
     EDDAV:  cpu time   88.46: real time   88.49
       DOS:  cpu time    0.01: real time    0.01
    CHARGE:  cpu time    6.55: real time    6.55
    MIXING:  cpu time    0.03: real time    0.04
    --------------------------------------------
      LOOP:  cpu time   96.19: real time   96.21

 eigenvalue-minimisations  :  2132
 total energy-change (2. order) :-0.7336265E+02  (-0.6573810E+00)
 number of electron     126.0000019 magnetization 
 augmentation part       38.2128356 magnetization 

 Broyden mixing:
  rms(total) = 0.22907E+00    rms(broyden)= 0.22828E+00
  rms(prec ) = 0.26991E+00
  weight for this iteration     100.00

 Free energy of the ion-electron system (eV)
  ---------------------------------------------------
  alpha Z        PSCENC =       341.47239739
  Ewald energy   TEWEN  =     47228.99960515
  -1/2 Hartree   DENC   =    -56464.16797580
  -exchange  EXHF       =         0.00000000
  -V(xc)+E(xc)   XCENC  =        65.06000907
  PAW double counting   =      7410.27649307    -7102.35334934
  entropy T*S    EENTRO =        -0.03770269
  eigenvalues    EBANDS =      -733.84528404
  atomic energy  EATOM  =      9181.23315831
  ---------------------------------------------------
  free energy    TOTEN  =       -73.36264889 eV

  energy without entropy =      -73.32494620  energy(sigma->0) =      -73.35008132


--------------------------------------------------------------------------------------------------------




----------------------------------------- Iteration    1(   2)  ---------------------------------------


    POTLOK:  cpu time    1.01: real time    1.01
    SETDIJ:  cpu time    0.09: real time    0.09
     EDDAV:  cpu time  133.19: real time  133.22
       DOS:  cpu time    0.01: real time    0.01
    CHARGE:  cpu time    6.53: real time    6.54
    MIXING:  cpu time    0.03: real time    0.04
    --------------------------------------------
      LOOP:  cpu time  140.87: real time  140.91

 eigenvalue-minimisations  :  3560
 total energy-change (2. order) :-0.2956324E+00  (-0.2068477E+00)
 number of electron     126.0000017 magnetization 
 augmentation part       38.1014752 magnetization 

 Broyden mixing:
  rms(total) = 0.49359E+00    rms(broyden)= 0.49352E+00
  rms(prec ) = 0.75902E+00
  weight for this iteration     100.00

 eigenvalues of (default mixing * dielectric matrix)
  average eigenvalue GAMMA=   0.2422
  0.2422

 Free energy of the ion-electron system (eV)
  ---------------------------------------------------
  alpha Z        PSCENC =       341.47239739
  Ewald energy   TEWEN  =     47228.99960515
  -1/2 Hartree   DENC   =    -56482.59439785
  -exchange  EXHF       =         0.00000000
  -V(xc)+E(xc)   XCENC  =        65.00184331
  PAW double counting   =      7418.41009213    -7110.31840732
  entropy T*S    EENTRO =        -0.03370465
  eigenvalues    EBANDS =      -715.82886770
  atomic energy  EATOM  =      9181.23315831
  ---------------------------------------------------
  free energy    TOTEN  =       -73.65828124 eV

  energy without entropy =      -73.62457659  energy(sigma->0) =      -73.64704636


--------------------------------------------------------------------------------------------------------




----------------------------------------- Iteration    1(   3)  ---------------------------------------


    POTLOK:  cpu time    1.02: real time    1.02
    SETDIJ:  cpu time    0.09: real time    0.09
     EDDAV:  cpu time  141.52: real time  141.56
       DOS:  cpu time    0.01: real time    0.01
    CHARGE:  cpu time    6.54: real time    6.54
    MIXING:  cpu time    0.04: real time    0.04
    --------------------------------------------
      LOOP:  cpu time  149.22: real time  149.27

 eigenvalue-minimisations  :  3832
 total energy-change (2. order) : 0.4037553E+00  (-0.1810332E+00)
 number of electron     126.0000020 magnetization 
 augmentation part       38.0882710 magnetization 

 Broyden mixing:
  rms(total) = 0.26153E+00    rms(broyden)= 0.26124E+00
  rms(prec ) = 0.36358E+00
  weight for this iteration     100.00

 eigenvalues of (default mixing * dielectric matrix)
  average eigenvalue GAMMA=   0.3305
  0.5229  0.1382

 Free energy of the ion-electron system (eV)
  ---------------------------------------------------
  alpha Z        PSCENC =       341.47239739
  Ewald energy   TEWEN  =     47228.99960515
  -1/2 Hartree   DENC   =    -56480.66207775
  -exchange  EXHF       =         0.00000000
  -V(xc)+E(xc)   XCENC  =        65.01082264
  PAW double counting   =      7417.88106714    -7109.80535029
  entropy T*S    EENTRO =        -0.03298942
  eigenvalues    EBANDS =      -717.35115908
  atomic energy  EATOM  =      9181.23315831
  ---------------------------------------------------
  free energy    TOTEN  =       -73.25452592 eV

  energy without entropy =      -73.22153650  energy(sigma->0) =      -73.24352945


--------------------------------------------------------------------------------------------------------




----------------------------------------- Iteration    1(   4)  ---------------------------------------


    POTLOK:  cpu time    1.02: real time    1.02
    SETDIJ:  cpu time    0.09: real time    0.09
     EDDAV:  cpu time  137.51: real time  137.54
       DOS:  cpu time    0.01: real time    0.01
    CHARGE:  cpu time    6.55: real time    6.55
    MIXING:  cpu time    0.04: real time    0.04
    --------------------------------------------
      LOOP:  cpu time  145.22: real time  145.27

 eigenvalue-minimisations  :  3706
 total energy-change (2. order) : 0.8470171E-01  (-0.4277573E-01)
 number of electron     126.0000019 magnetization 
 augmentation part       38.1494142 magnetization 

 Broyden mixing:
  rms(total) = 0.13233E+00    rms(broyden)= 0.13212E+00
  rms(prec ) = 0.16386E+00
  weight for this iteration     100.00

 eigenvalues of (default mixing * dielectric matrix)
  average eigenvalue GAMMA=   0.5714
  1.2360  0.3456  0.1326

 Free energy of the ion-electron system (eV)
  ---------------------------------------------------
  alpha Z        PSCENC =       341.47239739
  Ewald energy   TEWEN  =     47228.99960515
  -1/2 Hartree   DENC   =    -56479.82031191
  -exchange  EXHF       =         0.00000000
  -V(xc)+E(xc)   XCENC  =        65.08533217
  PAW double counting   =      7416.69853775    -7108.69684142
  entropy T*S    EENTRO =        -0.04017610
  eigenvalues    EBANDS =      -718.10152556
  atomic energy  EATOM  =      9181.23315831
  ---------------------------------------------------
  free energy    TOTEN  =       -73.16982421 eV

  energy without entropy =      -73.12964811  energy(sigma->0) =      -73.15643218


--------------------------------------------------------------------------------------------------------




----------------------------------------- Iteration    1(   5)  ---------------------------------------


    POTLOK:  cpu time    1.02: real time    1.02
    SETDIJ:  cpu time    0.09: real time    0.09
     EDDAV:  cpu time  122.34: real time  122.37
       DOS:  cpu time    0.01: real time    0.01
    CHARGE:  cpu time    6.54: real time    6.54
    MIXING:  cpu time    0.04: real time    0.04
    --------------------------------------------
      LOOP:  cpu time  130.04: real time  130.12

 eigenvalue-minimisations  :  3220
 total energy-change (2. order) : 0.1813461E-01  (-0.3451643E-01)
 number of electron     126.0000020 magnetization 
 augmentation part       38.1081979 magnetization 

 Broyden mixing:
  rms(total) = 0.10777E+00    rms(broyden)= 0.10773E+00
  rms(prec ) = 0.12718E+00
  weight for this iteration     100.00

 eigenvalues of (default mixing * dielectric matrix)
  average eigenvalue GAMMA=   0.6915
  1.8909  0.4779  0.1322  0.2651

 Free energy of the ion-electron system (eV)
  ---------------------------------------------------
  alpha Z        PSCENC =       341.47239739
  Ewald energy   TEWEN  =     47228.99960515
  -1/2 Hartree   DENC   =    -56487.31863605
  -exchange  EXHF       =         0.00000000
  -V(xc)+E(xc)   XCENC  =        65.09623617
  PAW double counting   =      7417.02408413    -7109.03882747
  entropy T*S    EENTRO =        -0.03236978
  eigenvalues    EBANDS =      -710.58733745
  atomic energy  EATOM  =      9181.23315831
  ---------------------------------------------------
  free energy    TOTEN  =       -73.15168961 eV

  energy without entropy =      -73.11931983  energy(sigma->0) =      -73.14089968


--------------------------------------------------------------------------------------------------------




----------------------------------------- Iteration    1(   6)  ---------------------------------------


    POTLOK:  cpu time    1.02: real time    1.02
    SETDIJ:  cpu time    0.09: real time    0.09
     EDDAV:  cpu time  125.74: real time  125.77
       DOS:  cpu time    0.01: real time    0.01
    CHARGE:  cpu time    6.53: real time    6.54
    MIXING:  cpu time    0.04: real time    0.04
    --------------------------------------------
      LOOP:  cpu time  133.44: real time  133.49

 eigenvalue-minimisations  :  3325
 total energy-change (2. order) : 0.2531552E-01  (-0.1076751E-01)
 number of electron     126.0000019 magnetization 
 augmentation part       38.1151167 magnetization 

 Broyden mixing:
  rms(total) = 0.20582E-01    rms(broyden)= 0.20512E-01
  rms(prec ) = 0.24077E-01
  weight for this iteration     100.00

 eigenvalues of (default mixing * dielectric matrix)
  average eigenvalue GAMMA=   0.7116
  1.7034  0.9982  0.4661  0.1320  0.2582

 Free energy of the ion-electron system (eV)
  ---------------------------------------------------
  alpha Z        PSCENC =       341.47239739
  Ewald energy   TEWEN  =     47228.99960515
  -1/2 Hartree   DENC   =    -56489.24010745
  -exchange  EXHF       =         0.00000000
  -V(xc)+E(xc)   XCENC  =        65.08726497
  PAW double counting   =      7415.99946768    -7108.04285701
  entropy T*S    EENTRO =        -0.03731568
  eigenvalues    EBANDS =      -708.59798745
  atomic energy  EATOM  =      9181.23315831
  ---------------------------------------------------
  free energy    TOTEN  =       -73.12637409 eV

  energy without entropy =      -73.08905841  energy(sigma->0) =      -73.11393553


--------------------------------------------------------------------------------------------------------




----------------------------------------- Iteration    1(   7)  ---------------------------------------


    POTLOK:  cpu time    1.02: real time    1.02
    SETDIJ:  cpu time    0.09: real time    0.09
     EDDAV:  cpu time  107.31: real time  107.34
       DOS:  cpu time    0.01: real time    0.01
    CHARGE:  cpu time    6.54: real time    6.54
    MIXING:  cpu time    0.04: real time    0.04
    --------------------------------------------
      LOOP:  cpu time  115.02: real time  115.06

 eigenvalue-minimisations  :  2729
 total energy-change (2. order) :-0.7184534E-03  (-0.1456997E-02)
 number of electron     126.0000019 magnetization 
 augmentation part       38.1199774 magnetization 

 Broyden mixing:
  rms(total) = 0.22311E-01    rms(broyden)= 0.22293E-01
  rms(prec ) = 0.26149E-01
  weight for this iteration     100.00

 eigenvalues of (default mixing * dielectric matrix)
  average eigenvalue GAMMA=   0.6792
  1.4448  1.4448  0.1320  0.4456  0.2574  0.3504

 Free energy of the ion-electron system (eV)
  ---------------------------------------------------
  alpha Z        PSCENC =       341.47239739
  Ewald energy   TEWEN  =     47228.99960515
  -1/2 Hartree   DENC   =    -56489.96859499
  -exchange  EXHF       =         0.00000000
  -V(xc)+E(xc)   XCENC  =        65.09065619
  PAW double counting   =      7414.99185498    -7107.05376385
  entropy T*S    EENTRO =        -0.03834552
  eigenvalues    EBANDS =      -707.85406020
  atomic energy  EATOM  =      9181.23315831
  ---------------------------------------------------
  free energy    TOTEN  =       -73.12709254 eV

  energy without entropy =      -73.08874702  energy(sigma->0) =      -73.11431070


--------------------------------------------------------------------------------------------------------




----------------------------------------- Iteration    1(   8)  ---------------------------------------


    POTLOK:  cpu time    1.02: real time    1.02
    SETDIJ:  cpu time    0.09: real time    0.09
     EDDAV:  cpu time  114.93: real time  114.96
       DOS:  cpu time    0.01: real time    0.01
    CHARGE:  cpu time    6.54: real time    6.54
    MIXING:  cpu time    0.04: real time    0.04
    --------------------------------------------
      LOOP:  cpu time  122.64: real time  122.68

 eigenvalue-minimisations  :  2975
 total energy-change (2. order) : 0.9131761E-03  (-0.3113654E-03)
 number of electron     126.0000019 magnetization 
 augmentation part       38.1213956 magnetization 

 Broyden mixing:
  rms(total) = 0.10348E-01    rms(broyden)= 0.10342E-01
  rms(prec ) = 0.12670E-01
  weight for this iteration     100.00

 eigenvalues of (default mixing * dielectric matrix)
  average eigenvalue GAMMA=   0.6870
  1.4248  1.4248  0.7813  0.4973  0.1320  0.2574  0.2914

 Free energy of the ion-electron system (eV)
  ---------------------------------------------------
  alpha Z        PSCENC =       341.47239739
  Ewald energy   TEWEN  =     47228.99960515
  -1/2 Hartree   DENC   =    -56490.70300405
  -exchange  EXHF       =         0.00000000
  -V(xc)+E(xc)   XCENC  =        65.09367135
  PAW double counting   =      7414.62251137    -7106.69031109
  entropy T*S    EENTRO =        -0.03721208
  eigenvalues    EBANDS =      -707.11699571
  atomic energy  EATOM  =      9181.23315831
  ---------------------------------------------------
  free energy    TOTEN  =       -73.12617937 eV

  energy without entropy =      -73.08896729  energy(sigma->0) =      -73.11377534


--------------------------------------------------------------------------------------------------------




----------------------------------------- Iteration    1(   9)  ---------------------------------------


    POTLOK:  cpu time    1.01: real time    1.01
    SETDIJ:  cpu time    0.09: real time    0.09
     EDDAV:  cpu time   75.80: real time   75.82
       DOS:  cpu time    0.01: real time    0.01
    CHARGE:  cpu time    6.54: real time    6.54
    MIXING:  cpu time    0.04: real time    0.04
    --------------------------------------------
      LOOP:  cpu time   83.50: real time   83.53

 eigenvalue-minimisations  :  1693
 total energy-change (2. order) : 0.1720711E-03  (-0.7039394E-04)
 number of electron     126.0000019 magnetization 
 augmentation part       38.1224849 magnetization 

 Broyden mixing:
  rms(total) = 0.80436E-02    rms(broyden)= 0.80425E-02
  rms(prec ) = 0.10098E-01
  weight for this iteration     100.00

 eigenvalues of (default mixing * dielectric matrix)
  average eigenvalue GAMMA=   0.7961
  1.9110  1.4598  1.4598  0.1320  0.4733  0.4065  0.2573  0.2691

 Free energy of the ion-electron system (eV)
  ---------------------------------------------------
  alpha Z        PSCENC =       341.47239739
  Ewald energy   TEWEN  =     47228.99960515
  -1/2 Hartree   DENC   =    -56491.60823083
  -exchange  EXHF       =         0.00000000
  -V(xc)+E(xc)   XCENC  =        65.10219114
  PAW double counting   =      7414.34124486    -7106.41287400
  entropy T*S    EENTRO =        -0.03758589
  eigenvalues    EBANDS =      -706.21591343
  atomic energy  EATOM  =      9181.23315831
  ---------------------------------------------------
  free energy    TOTEN  =       -73.12600730 eV

  energy without entropy =      -73.08842140  energy(sigma->0) =      -73.11347867


--------------------------------------------------------------------------------------------------------




----------------------------------------- Iteration    1(  10)  ---------------------------------------


    POTLOK:  cpu time    1.02: real time    1.02
    SETDIJ:  cpu time    0.09: real time    0.09
     EDDAV:  cpu time   98.05: real time   98.08
       DOS:  cpu time    0.01: real time    0.01
    CHARGE:  cpu time    6.53: real time    6.53
    MIXING:  cpu time    0.04: real time    0.05
    --------------------------------------------
      LOOP:  cpu time  105.75: real time  105.79

 eigenvalue-minimisations  :  2430
 total energy-change (2. order) : 0.2133217E-03  (-0.8902736E-04)
 number of electron     126.0000019 magnetization 
 augmentation part       38.1205865 magnetization 

 Broyden mixing:
  rms(total) = 0.51435E-02    rms(broyden)= 0.51413E-02
  rms(prec ) = 0.73178E-02
  weight for this iteration     100.00

 eigenvalues of (default mixing * dielectric matrix)
  average eigenvalue GAMMA=   0.8373
  2.3126  1.5107  1.5107  0.6939  0.4889  0.1320  0.3624  0.2563  0.2680

 Free energy of the ion-electron system (eV)
  ---------------------------------------------------
  alpha Z        PSCENC =       341.47239739
  Ewald energy   TEWEN  =     47228.99960515
  -1/2 Hartree   DENC   =    -56493.59596212
  -exchange  EXHF       =         0.00000000
  -V(xc)+E(xc)   XCENC  =        65.11625950
  PAW double counting   =      7413.89119539    -7105.96842540
  entropy T*S    EENTRO =        -0.03743333
  eigenvalues    EBANDS =      -704.23658886
  atomic energy  EATOM  =      9181.23315831
  ---------------------------------------------------
  free energy    TOTEN  =       -73.12579398 eV

  energy without entropy =      -73.08836065  energy(sigma->0) =      -73.11331620


--------------------------------------------------------------------------------------------------------




----------------------------------------- Iteration    1(  11)  ---------------------------------------


    POTLOK:  cpu time    1.03: real time    1.03
    SETDIJ:  cpu time    0.09: real time    0.09
     EDDAV:  cpu time   66.71: real time   66.73
       DOS:  cpu time    0.01: real time    0.01
    --------------------------------------------
      LOOP:  cpu time   67.84: real time   67.87

 eigenvalue-minimisations  :  1394
 total energy-change (2. order) : 0.3830425E-04  (-0.3274554E-04)
 number of electron     126.0000019 magnetization 
 augmentation part       38.1205865 magnetization 

 Free energy of the ion-electron system (eV)
  ---------------------------------------------------
  alpha Z        PSCENC =       341.47239739
  Ewald energy   TEWEN  =     47228.99960515
  -1/2 Hartree   DENC   =    -56494.97161577
  -exchange  EXHF       =         0.00000000
  -V(xc)+E(xc)   XCENC  =        65.12418831
  PAW double counting   =      7413.42552373    -7105.50886213
  entropy T*S    EENTRO =        -0.03734435
  eigenvalues    EBANDS =      -702.86280631
  atomic energy  EATOM  =      9181.23315831
  ---------------------------------------------------
  free energy    TOTEN  =       -73.12575567 eV

  energy without entropy =      -73.08841133  energy(sigma->0) =      -73.11330756


--------------------------------------------------------------------------------------------------------




 average (electrostatic) potential at core
  the test charge radii are     0.7215  1.2059
  (the norm of the test charge is              1.0000)
       1 -78.7794       2 -58.3757       3 -58.3477       4 -58.3477       5 -58.4564
       6 -58.8128       7 -58.7928       8 -58.8803       9 -58.8128      10 -58.2776
      11 -59.1290      12 -59.1290      13 -58.5491
 
 
 
 E-fermi :  -2.0294     XC(G=0):  -4.6770     alpha+bet : -3.7899


 k-point   1 :       0.1250    0.1250    0.0000
  band No.  band energies     occupation 
      1     -20.9764      2.00000
      2     -11.1863      2.00000
      3      -9.5286      2.00000
      4      -9.0217      2.00000
      5      -8.8859      2.00000
      6      -8.7791      2.00000
      7      -8.7006      2.00000
      8      -8.6365      2.00000
      9      -8.5330      2.00000
     10      -8.4259      2.00000
     11      -8.1326      2.00000
     12      -8.0189      2.00000
     13      -7.9538      2.00000
     14      -7.8779      2.00000
     15      -7.8126      2.00000
     16      -7.7974      2.00000
     17      -7.5434      2.00000
     18      -6.8636      2.00000
     19      -6.6888      2.00000
     20      -6.3108      2.00000
     21      -6.1185      2.00000
     22      -5.9337      2.00000
     23      -5.8567      2.00000
     24      -5.8118      2.00000
     25      -5.7843      2.00000
     26      -5.7291      2.00000
     27      -5.5085      2.00000
     28      -5.4219      2.00000
     29      -5.3957      2.00000
     30      -5.2826      2.00000
     31      -5.2525      2.00000
     32      -5.1517      2.00000
     33      -5.0437      2.00000
     34      -5.0339      2.00000
     35      -4.9975      2.00000
     36      -4.7346      2.00000
     37      -4.4870      2.00000
     38      -4.4574      2.00000
     39      -4.3879      2.00000
     40      -3.8374      2.00000
     41      -3.6834      2.00000
     42      -3.5669      2.00000
     43      -3.5130      2.00000
     44      -3.4924      2.00000
     45      -3.3144      2.00000
     46      -3.2915      2.00000
     47      -3.1287      2.00000
     48      -2.8674      2.00000
     49      -2.8153      2.00000
     50      -2.6048      2.00037
     51      -2.5439      2.00167
     52      -2.4258      2.01694
     53      -2.3562      2.04300
     54      -2.3502      2.04576
     55      -2.3304      2.05485
     56      -2.2240      2.04421
     57      -2.1294      1.74027
     58      -2.0679      1.31900
     59      -2.0378      1.07106
     60      -2.0119      0.85197
     61      -1.9595      0.44663
     62      -1.8541     -0.01428
     63      -1.8260     -0.05366
     64      -1.7419     -0.06063
     65      -1.6235     -0.01452
     66      -1.5983     -0.00937
     67      -1.3958     -0.00007
     68      -1.2986      0.00000
     69      -0.4608      0.00000
     70      -0.4568      0.00000
     71      -0.3951      0.00000
     72       0.1396      0.00000
     73       0.5219      0.00000
     74       1.0678      0.00000
     75       1.6850      0.00000

 k-point   2 :       0.0000    0.1250    0.0000
  band No.  band energies     occupation 
      1     -20.9749      2.00000
      2     -11.1884      2.00000
      3      -9.5233      2.00000
      4      -9.0194      2.00000
      5      -8.8969      2.00000
      6      -8.8302      2.00000
      7      -8.6698      2.00000
      8      -8.6045      2.00000
      9      -8.5169      2.00000
     10      -8.4475      2.00000
     11      -8.1246      2.00000
     12      -8.0464      2.00000
     13      -7.9677      2.00000
     14      -7.8817      2.00000
     15      -7.7942      2.00000
     16      -7.7824      2.00000
     17      -7.5554      2.00000
     18      -6.8357      2.00000
     19      -6.7153      2.00000
     20      -6.3068      2.00000
     21      -6.0783      2.00000
     22      -5.9362      2.00000
     23      -5.8439      2.00000
     24      -5.8061      2.00000
     25      -5.7821      2.00000
     26      -5.7214      2.00000
     27      -5.5841      2.00000
     28      -5.4909      2.00000
     29      -5.3408      2.00000
     30      -5.2529      2.00000
     31      -5.2134      2.00000
     32      -5.1761      2.00000
     33      -5.1124      2.00000
     34      -5.0584      2.00000
     35      -4.9374      2.00000
     36      -4.7481      2.00000
     37      -4.5482      2.00000
     38      -4.4595      2.00000
     39      -4.3642      2.00000
     40      -3.7303      2.00000
     41      -3.6635      2.00000
     42      -3.5706      2.00000
     43      -3.5364      2.00000
     44      -3.4836      2.00000
     45      -3.3749      2.00000
     46      -3.2834      2.00000
     47      -3.1055      2.00000
     48      -2.9197      2.00000
     49      -2.8400      2.00000
     50      -2.5829      2.00065
     51      -2.5306      2.00225
     52      -2.4396      2.01352
     53      -2.3537      2.04418
     54      -2.3334      2.05350
     55      -2.2667      2.07044
     56      -2.2420      2.06095
     57      -2.1293      1.73928
     58      -2.0847      1.44830
     59      -2.0560      1.22276
     60      -2.0099      0.83527
     61      -1.9315      0.27139
     62      -1.8947      0.09941
     63      -1.8296     -0.05002
     64      -1.7515     -0.06427
     65      -1.6734     -0.03042
     66      -1.6149     -0.01256
     67      -1.4689     -0.00054
     68      -1.1692      0.00000
     69      -0.5231      0.00000
     70      -0.4223      0.00000
     71      -0.3376      0.00000
     72       0.2347      0.00000
     73       0.6226      0.00000
     74       0.9623      0.00000
     75       1.7315      0.00000

 k-point   3 :       0.3750    0.1250    0.0000
  band No.  band energies     occupation 
      1     -20.9647      2.00000
      2     -10.4478      2.00000
      3      -9.0176      2.00000
      4      -8.8027      2.00000
      5      -8.4807      2.00000
      6      -8.3777      2.00000
      7      -8.3105      2.00000
      8      -8.2001      2.00000
      9      -8.0645      2.00000
     10      -7.9009      2.00000
     11      -7.8164      2.00000
     12      -7.7385      2.00000
     13      -7.6279      2.00000
     14      -7.4968      2.00000
     15      -7.4125      2.00000
     16      -7.3436      2.00000
     17      -7.0723      2.00000
     18      -6.8042      2.00000
     19      -6.5445      2.00000
     20      -6.3496      2.00000
     21      -6.2801      2.00000
     22      -6.2000      2.00000
     23      -6.1170      2.00000
     24      -5.9686      2.00000
     25      -5.8443      2.00000
     26      -5.7672      2.00000
     27      -5.7242      2.00000
     28      -5.6657      2.00000
     29      -5.4497      2.00000
     30      -5.4037      2.00000
     31      -5.3264      2.00000
     32      -5.2309      2.00000
     33      -5.1568      2.00000
     34      -4.9723      2.00000
     35      -4.9239      2.00000
     36      -4.9060      2.00000
     37      -4.8203      2.00000
     38      -4.6732      2.00000
     39      -4.4456      2.00000
     40      -4.4092      2.00000
     41      -4.2615      2.00000
     42      -4.2125      2.00000
     43      -4.1512      2.00000
     44      -4.0751      2.00000
     45      -4.0338      2.00000
     46      -3.9224      2.00000
     47      -3.7812      2.00000
     48      -3.6828      2.00000
     49      -3.5810      2.00000
     50      -3.3935      2.00000
     51      -3.2740      2.00000
     52      -3.1663      2.00000
     53      -3.1059      2.00000
     54      -2.9498      2.00000
     55      -2.8074      2.00000
     56      -2.7687      2.00000
     57      -2.6228      2.00022
     58      -2.5009      2.00428
     59      -2.3714      2.03624
     60      -2.3209      2.05902
     61      -2.2535      2.06706
     62      -2.1391      1.79114
     63      -2.0895      1.48404
     64      -2.0369      1.06311
     65      -1.9184      0.20235
     66      -1.8562     -0.01026
     67      -1.7039     -0.04357
     68      -1.0981      0.00000
     69      -0.9471      0.00000
     70      -0.6729      0.00000
     71      -0.1365      0.00000
     72       1.1741      0.00000
     73       1.3538      0.00000
     74       1.5050      0.00000
     75       2.0505      0.00000

 k-point   4 :       0.2500    0.3750    0.0000
  band No.  band energies     occupation 
      1     -20.9685      2.00000
      2     -10.4388      2.00000
      3      -8.9974      2.00000
      4      -8.7580      2.00000
      5      -8.5684      2.00000
      6      -8.4159      2.00000
      7      -8.2877      2.00000
      8      -8.1446      2.00000
      9      -8.1058      2.00000
     10      -7.9022      2.00000
     11      -7.8012      2.00000
     12      -7.7106      2.00000
     13      -7.6465      2.00000
     14      -7.5209      2.00000
     15      -7.4398      2.00000
     16      -7.3225      2.00000
     17      -7.0055      2.00000
     18      -6.8384      2.00000
     19      -6.4945      2.00000
     20      -6.3666      2.00000
     21      -6.3151      2.00000
     22      -6.2470      2.00000
     23      -6.1427      2.00000
     24      -5.9100      2.00000
     25      -5.7947      2.00000
     26      -5.7587      2.00000
     27      -5.7118      2.00000
     28      -5.6405      2.00000
     29      -5.4882      2.00000
     30      -5.4015      2.00000
     31      -5.2906      2.00000
     32      -5.2138      2.00000
     33      -5.1580      2.00000
     34      -4.9777      2.00000
     35      -4.9269      2.00000
     36      -4.8990      2.00000
     37      -4.8254      2.00000
     38      -4.6583      2.00000
     39      -4.4730      2.00000
     40      -4.4293      2.00000
     41      -4.2631      2.00000
     42      -4.2371      2.00000
     43      -4.1641      2.00000
     44      -4.0732      2.00000
     45      -4.0186      2.00000
     46      -3.9105      2.00000
     47      -3.8353      2.00000
     48      -3.6287      2.00000
     49      -3.5296      2.00000
     50      -3.4342      2.00000
     51      -3.2657      2.00000
     52      -3.2105      2.00000
     53      -3.0805      2.00000
     54      -2.9477      2.00000
     55      -2.7994      2.00000
     56      -2.7390      2.00001
     57      -2.6124      2.00030
     58      -2.4901      2.00532
     59      -2.4157      2.01982
     60      -2.2909      2.06905
     61      -2.2415      2.06062
     62      -2.1015      1.56803
     63      -2.0501      1.17369
     64      -1.9976      0.73481
     65      -1.9409      0.32589
     66      -1.8753      0.03568
     67      -1.6707     -0.02934
     68      -1.3307     -0.00001
     69      -1.0305      0.00000
     70      -0.7126      0.00000
     71      -0.0624      0.00000
     72       1.0296      0.00000
     73       1.2721      0.00000
     74       1.6454      0.00000
     75       2.1291      0.00000

 k-point   5 :      -0.1250    0.2500    0.0000
  band No.  band energies     occupation 
      1     -20.9609      2.00000
      2     -10.4583      2.00000
      3      -9.0137      2.00000
      4      -8.7956      2.00000
      5      -8.5665      2.00000
      6      -8.3681      2.00000
      7      -8.2864      2.00000
      8      -8.0940      2.00000
      9      -8.0515      2.00000
     10      -7.9133      2.00000
     11      -7.8324      2.00000
     12      -7.7153      2.00000
     13      -7.6741      2.00000
     14      -7.5307      2.00000
     15      -7.3548      2.00000
     16      -7.2642      2.00000
     17      -7.2336      2.00000
     18      -6.7999      2.00000
     19      -6.5357      2.00000
     20      -6.3576      2.00000
     21      -6.3108      2.00000
     22      -6.1856      2.00000
     23      -6.1172      2.00000
     24      -5.9282      2.00000
     25      -5.8443      2.00000
     26      -5.7855      2.00000
     27      -5.7273      2.00000
     28      -5.6966      2.00000
     29      -5.4710      2.00000
     30      -5.3956      2.00000
     31      -5.2932      2.00000
     32      -5.2253      2.00000
     33      -5.1291      2.00000
     34      -5.0580      2.00000
     35      -4.9614      2.00000
     36      -4.8881      2.00000
     37      -4.8480      2.00000
     38      -4.6966      2.00000
     39      -4.4176      2.00000
     40      -4.3683      2.00000
     41      -4.2920      2.00000
     42      -4.2665      2.00000
     43      -4.1713      2.00000
     44      -4.0793      2.00000
     45      -3.9731      2.00000
     46      -3.8761      2.00000
     47      -3.7429      2.00000
     48      -3.6554      2.00000
     49      -3.5664      2.00000
     50      -3.4050      2.00000
     51      -3.2922      2.00000
     52      -3.2244      2.00000
     53      -3.0567      2.00000
     54      -2.9236      2.00000
     55      -2.8051      2.00000
     56      -2.6981      2.00002
     57      -2.6484      2.00011
     58      -2.4709      2.00774
     59      -2.4256      2.01701
     60      -2.3251      2.05720
     61      -2.2318      2.05267
     62      -2.1649      1.90334
     63      -2.0842      1.44463
     64      -2.0432      1.11624
     65      -1.9287      0.25606
     66      -1.8546     -0.01321
     67      -1.6531     -0.02298
     68      -1.2139      0.00000
     69      -0.9918      0.00000
     70      -0.5800      0.00000
     71      -0.0097      0.00000
     72       1.1311      0.00000
     73       1.3567      0.00000
     74       1.5877      0.00000
     75       2.2375      0.00000

 k-point   6 :      -0.3750    0.1250    0.0000
  band No.  band energies     occupation 
      1     -20.9566      2.00000
      2      -9.8607      2.00000
      3      -9.2629      2.00000
      4      -8.5352      2.00000
      5      -8.3462      2.00000
      6      -8.1568      2.00000
      7      -7.9373      2.00000
      8      -7.8293      2.00000
      9      -7.7735      2.00000
     10      -7.6545      2.00000
     11      -7.6181      2.00000
     12      -7.4556      2.00000
     13      -7.4178      2.00000
     14      -7.2501      2.00000
     15      -7.1298      2.00000
     16      -7.0779      2.00000
     17      -6.9104      2.00000
     18      -6.7671      2.00000
     19      -6.6098      2.00000
     20      -6.5286      2.00000
     21      -6.4253      2.00000
     22      -6.3595      2.00000
     23      -6.2656      2.00000
     24      -6.1897      2.00000
     25      -6.0527      2.00000
     26      -6.0001      2.00000
     27      -5.7980      2.00000
     28      -5.7248      2.00000
     29      -5.5662      2.00000
     30      -5.4277      2.00000
     31      -5.3405      2.00000
     32      -5.2822      2.00000
     33      -5.2424      2.00000
     34      -5.1966      2.00000
     35      -5.1010      2.00000
     36      -5.0412      2.00000
     37      -4.9308      2.00000
     38      -4.7952      2.00000
     39      -4.7396      2.00000
     40      -4.6729      2.00000
     41      -4.6310      2.00000
     42      -4.5442      2.00000
     43      -4.4217      2.00000
     44      -4.2766      2.00000
     45      -4.0223      2.00000
     46      -4.0002      2.00000
     47      -3.8858      2.00000
     48      -3.7956      2.00000
     49      -3.7258      2.00000
     50      -3.6430      2.00000
     51      -3.5441      2.00000
     52      -3.4266      2.00000
     53      -3.3099      2.00000
     54      -3.1434      2.00000
     55      -3.0871      2.00000
     56      -2.9984      2.00000
     57      -2.8613      2.00000
     58      -2.7047      2.00002
     59      -2.6315      2.00018
     60      -2.4997      2.00439
     61      -2.3946      2.02693
     62      -2.2680      2.07059
     63      -2.1634      1.89773
     64      -2.0946      1.52014
     65      -1.9634      0.47359
     66      -1.8841      0.06230
     67      -1.6819     -0.03387
     68      -1.1531      0.00000
     69      -0.8813      0.00000
     70      -0.2943      0.00000
     71       0.1587      0.00000
     72       0.6291      0.00000
     73       1.3972      0.00000
     74       2.1791      0.00000
     75       2.4750      0.00000

 k-point   7 :       0.5000   -0.3750    0.0000
  band No.  band energies     occupation 
      1     -20.9657      2.00000
      2      -9.8113      2.00000
      3      -9.2074      2.00000
      4      -8.6097      2.00000
      5      -8.3993      2.00000
      6      -8.1779      2.00000
      7      -7.9957      2.00000
      8      -7.8771      2.00000
      9      -7.7301      2.00000
     10      -7.6702      2.00000
     11      -7.5976      2.00000
     12      -7.5119      2.00000
     13      -7.3993      2.00000
     14      -7.2376      2.00000
     15      -7.1401      2.00000
     16      -7.0079      2.00000
     17      -6.8108      2.00000
     18      -6.7165      2.00000
     19      -6.6472      2.00000
     20      -6.4709      2.00000
     21      -6.3799      2.00000
     22      -6.3121      2.00000
     23      -6.2763      2.00000
     24      -6.1577      2.00000
     25      -6.0368      2.00000
     26      -5.9587      2.00000
     27      -5.8186      2.00000
     28      -5.6805      2.00000
     29      -5.5909      2.00000
     30      -5.4886      2.00000
     31      -5.3525      2.00000
     32      -5.3087      2.00000
     33      -5.2415      2.00000
     34      -5.2175      2.00000
     35      -5.0923      2.00000
     36      -5.0222      2.00000
     37      -4.9642      2.00000
     38      -4.7972      2.00000
     39      -4.7627      2.00000
     40      -4.6859      2.00000
     41      -4.6110      2.00000
     42      -4.5225      2.00000
     43      -4.4106      2.00000
     44      -4.2204      2.00000
     45      -4.0444      2.00000
     46      -3.9693      2.00000
     47      -3.8903      2.00000
     48      -3.8239      2.00000
     49      -3.7373      2.00000
     50      -3.6406      2.00000
     51      -3.5419      2.00000
     52      -3.4463      2.00000
     53      -3.3166      2.00000
     54      -3.1957      2.00000
     55      -3.0507      2.00000
     56      -3.0137      2.00000
     57      -2.8327      2.00000
     58      -2.7089      2.00002
     59      -2.6610      2.00008
     60      -2.5021      2.00417
     61      -2.3337      2.05336
     62      -2.3012      2.06633
     63      -2.0973      1.53972
     64      -2.0075      0.81595
     65      -1.9628      0.46933
     66      -1.8477     -0.02565
     67      -1.7230     -0.05241
     68      -1.5110     -0.00152
     69      -0.8830      0.00000
     70      -0.3096      0.00000
     71      -0.0341      0.00000
     72       0.6452      0.00000
     73       1.4400      0.00000
     74       2.0931      0.00000
     75       2.4892      0.00000

 k-point   8 :      -0.1250    0.5000    0.0000
  band No.  band energies     occupation 
      1     -20.9582      2.00000
      2      -9.8471      2.00000
      3      -9.2738      2.00000
      4      -8.5345      2.00000
      5      -8.3051      2.00000
      6      -8.1556      2.00000
      7      -8.0262      2.00000
      8      -7.8661      2.00000
      9      -7.7204      2.00000
     10      -7.6708      2.00000
     11      -7.5947      2.00000
     12      -7.5274      2.00000
     13      -7.3981      2.00000
     14      -7.2372      2.00000
     15      -7.1181      2.00000
     16      -7.0342      2.00000
     17      -6.8750      2.00000
     18      -6.7344      2.00000
     19      -6.6621      2.00000
     20      -6.4892      2.00000
     21      -6.4058      2.00000
     22      -6.3514      2.00000
     23      -6.2477      2.00000
     24      -6.1966      2.00000
     25      -6.1104      2.00000
     26      -5.9906      2.00000
     27      -5.8106      2.00000
     28      -5.7295      2.00000
     29      -5.5597      2.00000
     30      -5.4450      2.00000
     31      -5.3520      2.00000
     32      -5.2785      2.00000
     33      -5.2308      2.00000
     34      -5.1933      2.00000
     35      -5.1012      2.00000
     36      -5.0418      2.00000
     37      -4.9007      2.00000
     38      -4.7950      2.00000
     39      -4.7419      2.00000
     40      -4.6784      2.00000
     41      -4.6018      2.00000
     42      -4.5566      2.00000
     43      -4.3623      2.00000
     44      -4.3251      2.00000
     45      -4.0658      2.00000
     46      -3.9979      2.00000
     47      -3.8678      2.00000
     48      -3.7832      2.00000
     49      -3.7373      2.00000
     50      -3.6373      2.00000
     51      -3.5519      2.00000
     52      -3.4480      2.00000
     53      -3.3538      2.00000
     54      -3.1509      2.00000
     55      -3.0754      2.00000
     56      -2.9781      2.00000
     57      -2.8803      2.00000
     58      -2.7222      2.00001
     59      -2.6504      2.00010
     60      -2.4610      2.00929
     61      -2.3921      2.02784
     62      -2.2699      2.07076
     63      -2.1417      1.80384
     64      -2.0938      1.51449
     65      -1.9726      0.54022
     66      -1.8751      0.03518
     67      -1.6936     -0.03895
     68      -1.1058      0.00000
     69      -0.8889      0.00000
     70      -0.3598      0.00000
     71       0.1488      0.00000
     72       0.6456      0.00000
     73       1.4039      0.00000
     74       2.0501      0.00000
     75       2.5500      0.00000

 k-point   9 :      -0.1250    0.1250    0.0000
  band No.  band energies     occupation 
      1     -20.9685      2.00000
      2     -10.9335      2.00000
      3      -9.2861      2.00000
      4      -8.8665      2.00000
      5      -8.8037      2.00000
      6      -8.7229      2.00000
      7      -8.5182      2.00000
      8      -8.4063      2.00000
      9      -8.3269      2.00000
     10      -8.2569      2.00000
     11      -8.0028      2.00000
     12      -7.9860      2.00000
     13      -7.8762      2.00000
     14      -7.7417      2.00000
     15      -7.6175      2.00000
     16      -7.5557      2.00000
     17      -7.4866      2.00000
     18      -6.7927      2.00000
     19      -6.6752      2.00000
     20      -6.2973      2.00000
     21      -6.0458      2.00000
     22      -6.0179      2.00000
     23      -5.8891      2.00000
     24      -5.8559      2.00000
     25      -5.7656      2.00000
     26      -5.7367      2.00000
     27      -5.6876      2.00000
     28      -5.5203      2.00000
     29      -5.3671      2.00000
     30      -5.3003      2.00000
     31      -5.2719      2.00000
     32      -5.1997      2.00000
     33      -5.1235      2.00000
     34      -5.0341      2.00000
     35      -4.9798      2.00000
     36      -4.8067      2.00000
     37      -4.7527      2.00000
     38      -4.6279      2.00000
     39      -4.4401      2.00000
     40      -3.9671      2.00000
     41      -3.8461      2.00000
     42      -3.7278      2.00000
     43      -3.6896      2.00000
     44      -3.6375      2.00000
     45      -3.5623      2.00000
     46      -3.4144      2.00000
     47      -3.3858      2.00000
     48      -3.2565      2.00000
     49      -3.1908      2.00000
     50      -3.1215      2.00000
     51      -2.9837      2.00000
     52      -2.6997      2.00002
     53      -2.6395      2.00014
     54      -2.5552      2.00128
     55      -2.4954      2.00479
     56      -2.4409      2.01321
     57      -2.4081      2.02221
     58      -2.3387      2.05107
     59      -2.2179      2.03610
     60      -2.1859      1.97075
     61      -2.1552      1.86503
     62      -2.0181      0.90403
     63      -1.9466      0.36112
     64      -1.9033      0.13343
     65      -1.7749     -0.07026
     66      -1.5921     -0.00837
     67      -1.3833     -0.00005
     68      -1.3587     -0.00002
     69      -0.9562      0.00000
     70      -0.7209      0.00000
     71      -0.0279      0.00000
     72       0.6082      0.00000
     73       0.9965      0.00000
     74       1.6281      0.00000
     75       1.8674      0.00000

 k-point  10 :      -0.2500   -0.1250    0.0000
  band No.  band energies     occupation 
      1     -20.9723      2.00000
      2     -10.9272      2.00000
      3      -9.3033      2.00000
      4      -8.8329      2.00000
      5      -8.7822      2.00000
      6      -8.6907      2.00000
      7      -8.5394      2.00000
      8      -8.4609      2.00000
      9      -8.3815      2.00000
     10      -8.2233      2.00000
     11      -8.0080      2.00000
     12      -7.9336      2.00000
     13      -7.8480      2.00000
     14      -7.7574      2.00000
     15      -7.6506      2.00000
     16      -7.6095      2.00000
     17      -7.4044      2.00000
     18      -6.8382      2.00000
     19      -6.6338      2.00000
     20      -6.2979      2.00000
     21      -6.1262      2.00000
     22      -6.0036      2.00000
     23      -5.9738      2.00000
     24      -5.8160      2.00000
     25      -5.7571      2.00000
     26      -5.7307      2.00000
     27      -5.5879      2.00000
     28      -5.5111      2.00000
     29      -5.3257      2.00000
     30      -5.3081      2.00000
     31      -5.2703      2.00000
     32      -5.1969      2.00000
     33      -5.1227      2.00000
     34      -5.0620      2.00000
     35      -4.9410      2.00000
     36      -4.8043      2.00000
     37      -4.7079      2.00000
     38      -4.5832      2.00000
     39      -4.4726      2.00000
     40      -4.0153      2.00000
     41      -3.8997      2.00000
     42      -3.7668      2.00000
     43      -3.6957      2.00000
     44      -3.6484      2.00000
     45      -3.5276      2.00000
     46      -3.4082      2.00000
     47      -3.3267      2.00000
     48      -3.2909      2.00000
     49      -3.2088      2.00000
     50      -3.1116      2.00000
     51      -2.9614      2.00000
     52      -2.7020      2.00002
     53      -2.6149      2.00028
     54      -2.5812      2.00067
     55      -2.5333      2.00212
     56      -2.4418      2.01302
     57      -2.4087      2.02204
     58      -2.2803      2.07065
     59      -2.2214      2.04092
     60      -2.1772      1.94559
     61      -2.1060      1.59825
     62      -2.0553      1.21720
     63      -1.9732      0.54475
     64      -1.9005      0.12182
     65      -1.8025     -0.06810
     66      -1.6439     -0.02005
     67      -1.3796     -0.00004
     68      -1.2456      0.00000
     69      -1.0373      0.00000
     70      -0.6188      0.00000
     71      -0.2101      0.00000
     72       0.4407      0.00000
     73       1.0242      0.00000
     74       1.6526      0.00000
     75       1.8666      0.00000

 k-point  11 :       0.3750    0.3750    0.0000
  band No.  band energies     occupation 
      1     -20.9685      2.00000
      2     -10.2187      2.00000
      3      -9.1026      2.00000
      4      -8.7739      2.00000
      5      -8.3780      2.00000
      6      -8.3114      2.00000
      7      -8.2074      2.00000
      8      -8.0626      2.00000
      9      -7.8993      2.00000
     10      -7.8127      2.00000
     11      -7.7583      2.00000
     12      -7.6154      2.00000
     13      -7.5852      2.00000
     14      -7.4156      2.00000
     15      -7.3569      2.00000
     16      -7.1786      2.00000
     17      -6.8234      2.00000
     18      -6.8088      2.00000
     19      -6.5440      2.00000
     20      -6.3893      2.00000
     21      -6.3511      2.00000
     22      -6.2743      2.00000
     23      -6.1784      2.00000
     24      -6.0146      2.00000
     25      -5.8910      2.00000
     26      -5.8351      2.00000
     27      -5.7333      2.00000
     28      -5.6321      2.00000
     29      -5.4753      2.00000
     30      -5.4139      2.00000
     31      -5.3347      2.00000
     32      -5.1016      2.00000
     33      -5.0947      2.00000
     34      -5.0253      2.00000
     35      -4.9494      2.00000
     36      -4.8455      2.00000
     37      -4.8166      2.00000
     38      -4.7352      2.00000
     39      -4.6549      2.00000
     40      -4.4553      2.00000
     41      -4.4499      2.00000
     42      -4.4192      2.00000
     43      -4.3860      2.00000
     44      -4.2814      2.00000
     45      -4.0718      2.00000
     46      -3.9670      2.00000
     47      -3.9613      2.00000
     48      -3.6587      2.00000
     49      -3.6217      2.00000
     50      -3.6060      2.00000
     51      -3.3780      2.00000
     52      -3.3277      2.00000
     53      -3.2267      2.00000
     54      -3.0822      2.00000
     55      -2.9584      2.00000
     56      -2.9474      2.00000
     57      -2.8642      2.00000
     58      -2.6921      2.00003
     59      -2.6591      2.00008
     60      -2.5112      2.00345
     61      -2.2922      2.06876
     62      -2.2166      2.03422
     63      -2.0145      0.87415
     64      -2.0043      0.78903
     65      -1.9052      0.14137
     66      -1.7534     -0.06495
     67      -1.5283     -0.00226
     68      -1.4821     -0.00076
     69      -0.6098      0.00000
     70       0.0774      0.00000
     71       0.2156      0.00000
     72       0.5769      0.00000
     73       1.1164      0.00000
     74       1.3796      0.00000
     75       2.1257      0.00000

 k-point  12 :       0.0000    0.3750    0.0000
  band No.  band energies     occupation 
      1     -20.9594      2.00000
      2     -10.2464      2.00000
      3      -9.1746      2.00000
      4      -8.7072      2.00000
      5      -8.3630      2.00000
      6      -8.3341      2.00000
      7      -8.1549      2.00000
      8      -8.0217      2.00000
      9      -7.8746      2.00000
     10      -7.8129      2.00000
     11      -7.7741      2.00000
     12      -7.6566      2.00000
     13      -7.5414      2.00000
     14      -7.4388      2.00000
     15      -7.2965      2.00000
     16      -7.1893      2.00000
     17      -7.0429      2.00000
     18      -6.7394      2.00000
     19      -6.5247      2.00000
     20      -6.4348      2.00000
     21      -6.3036      2.00000
     22      -6.2550      2.00000
     23      -6.1594      2.00000
     24      -6.0631      2.00000
     25      -5.9794      2.00000
     26      -5.8714      2.00000
     27      -5.7552      2.00000
     28      -5.6943      2.00000
     29      -5.4461      2.00000
     30      -5.3699      2.00000
     31      -5.3432      2.00000
     32      -5.1564      2.00000
     33      -5.0841      2.00000
     34      -4.9927      2.00000
     35      -4.9114      2.00000
     36      -4.8934      2.00000
     37      -4.8272      2.00000
     38      -4.7333      2.00000
     39      -4.5968      2.00000
     40      -4.5113      2.00000
     41      -4.4379      2.00000
     42      -4.3991      2.00000
     43      -4.3667      2.00000
     44      -4.2648      2.00000
     45      -4.1063      2.00000
     46      -3.9906      2.00000
     47      -3.8215      2.00000
     48      -3.7711      2.00000
     49      -3.6821      2.00000
     50      -3.5068      2.00000
     51      -3.4158      2.00000
     52      -3.2964      2.00000
     53      -3.2247      2.00000
     54      -3.0702      2.00000
     55      -2.9879      2.00000
     56      -2.9184      2.00000
     57      -2.8700      2.00000
     58      -2.7625      2.00000
     59      -2.6655      2.00007
     60      -2.4745      2.00722
     61      -2.3505      2.04561
     62      -2.1554      1.86578
     63      -2.1055      1.59504
     64      -2.0344      1.04187
     65      -1.9565      0.42599
     66      -1.7803     -0.07079
     67      -1.5907     -0.00814
     68      -1.0302      0.00000
     69      -0.4179      0.00000
     70       0.1120      0.00000
     71       0.2151      0.00000
     72       0.6880      0.00000
     73       1.0586      0.00000
     74       1.4353      0.00000
     75       1.9874      0.00000

 k-point  13 :      -0.3750    0.3750    0.0000
  band No.  band energies     occupation 
      1     -20.9610      2.00000
      2      -9.3509      2.00000
      3      -9.1917      2.00000
      4      -8.7628      2.00000
      5      -8.2992      2.00000
      6      -8.0447      2.00000
      7      -7.9797      2.00000
      8      -7.6808      2.00000
      9      -7.5854      2.00000
     10      -7.4577      2.00000
     11      -7.3784      2.00000
     12      -7.3187      2.00000
     13      -7.2288      2.00000
     14      -7.1398      2.00000
     15      -7.0322      2.00000
     16      -6.8733      2.00000
     17      -6.8338      2.00000
     18      -6.7872      2.00000
     19      -6.7325      2.00000
     20      -6.6520      2.00000
     21      -6.5452      2.00000
     22      -6.3789      2.00000
     23      -6.3391      2.00000
     24      -6.2034      2.00000
     25      -6.1423      2.00000
     26      -6.0521      2.00000
     27      -5.8952      2.00000
     28      -5.8463      2.00000
     29      -5.7499      2.00000
     30      -5.6784      2.00000
     31      -5.6565      2.00000
     32      -5.5897      2.00000
     33      -5.5124      2.00000
     34      -5.4405      2.00000
     35      -5.0471      2.00000
     36      -5.0276      2.00000
     37      -4.9252      2.00000
     38      -4.8687      2.00000
     39      -4.8145      2.00000
     40      -4.7813      2.00000
     41      -4.6664      2.00000
     42      -4.5520      2.00000
     43      -4.3667      2.00000
     44      -4.1824      2.00000
     45      -4.1078      2.00000
     46      -4.0114      2.00000
     47      -3.7201      2.00000
     48      -3.6799      2.00000
     49      -3.6331      2.00000
[...]
     70       0.0836      0.00000
     71       0.2204      0.00000
     72       0.5873      0.00000
     73       1.1156      0.00000
     74       1.3788      0.00000
     75       2.1287      0.00000

 k-point  12 :       0.0000    0.3750    0.0000
  band No.  band energies     occupation 
      1     -20.7840      2.00000
      2     -10.2311      2.00000
      3      -9.1342      2.00000
      4      -8.6712      2.00000
      5      -8.3061      2.00000
      6      -8.2798      2.00000
      7      -8.1245      2.00000
      8      -7.9999      2.00000
      9      -7.8592      2.00000
     10      -7.7982      2.00000
     11      -7.7559      2.00000
     12      -7.6183      2.00000
     13      -7.5091      2.00000
     14      -7.4136      2.00000
     15      -7.2588      2.00000
     16      -7.1502      2.00000
     17      -7.0159      2.00000
     18      -6.7219      2.00000
     19      -6.5070      2.00000
     20      -6.4227      2.00000
     21      -6.2899      2.00000
     22      -6.2411      2.00000
     23      -6.1431      2.00000
     24      -6.0486      2.00000
     25      -5.9632      2.00000
     26      -5.8483      2.00000
     27      -5.7400      2.00000
     28      -5.6807      2.00000
     29      -5.4353      2.00000
     30      -5.3557      2.00000
     31      -5.3312      2.00000
     32      -5.1435      2.00000
     33      -5.0736      2.00000
     34      -4.9810      2.00000
     35      -4.9010      2.00000
     36      -4.8830      2.00000
     37      -4.8157      2.00000
     38      -4.7234      2.00000
     39      -4.5825      2.00000
     40      -4.5019      2.00000
     41      -4.4302      2.00000
     42      -4.3911      2.00000
     43      -4.3574      2.00000
     44      -4.2545      2.00000
     45      -4.0963      2.00000
     46      -3.9847      2.00000
     47      -3.8102      2.00000
     48      -3.7626      2.00000
     49      -3.6729      2.00000
     50      -3.5013      2.00000
     51      -3.4065      2.00000
     52      -3.2842      2.00000
     53      -3.2175      2.00000
     54      -3.0607      2.00000
     55      -2.9809      2.00000
     56      -2.9105      2.00000
     57      -2.8659      2.00000
     58      -2.7566      2.00000
     59      -2.6583      2.00006
     60      -2.4710      2.00667
     61      -2.3453      2.04449
     62      -2.1470      1.86297
     63      -2.0967      1.58768
     64      -2.0275      1.04867
     65      -1.9516      0.44518
     66      -1.7717     -0.07072
     67      -1.5905     -0.00935
     68      -1.0527      0.00000
     69      -0.4148      0.00000
     70       0.1191      0.00000
     71       0.2168      0.00000
     72       0.6926      0.00000
     73       1.0657      0.00000
     74       1.4231      0.00000
     75       1.9963      0.00000

 k-point  13 :      -0.3750    0.3750    0.0000
  band No.  band energies     occupation 
      1     -20.7853      2.00000
      2      -9.3196      2.00000
      3      -9.1803      2.00000
      4      -8.7217      2.00000
      5      -8.2401      2.00000
      6      -7.9488      2.00000
      7      -7.9197      2.00000
      8      -7.6522      2.00000
      9      -7.5543      2.00000
     10      -7.4311      2.00000
     11      -7.3663      2.00000
     12      -7.3088      2.00000
     13      -7.1912      2.00000
     14      -7.1192      2.00000
     15      -7.0217      2.00000
     16      -6.8513      2.00000
     17      -6.8194      2.00000
     18      -6.7785      2.00000
     19      -6.7234      2.00000
     20      -6.6301      2.00000
     21      -6.5335      2.00000
     22      -6.3588      2.00000
     23      -6.3216      2.00000
     24      -6.1894      2.00000
     25      -6.1263      2.00000
     26      -6.0354      2.00000
     27      -5.8824      2.00000
     28      -5.8341      2.00000
     29      -5.7370      2.00000
     30      -5.6707      2.00000
     31      -5.6483      2.00000
     32      -5.5801      2.00000
     33      -5.4921      2.00000
     34      -5.4269      2.00000
     35      -5.0405      2.00000
     36      -5.0142      2.00000
     37      -4.9131      2.00000
     38      -4.8629      2.00000
     39      -4.8056      2.00000
     40      -4.7719      2.00000
     41      -4.6566      2.00000
     42      -4.5442      2.00000
     43      -4.3568      2.00000
     44      -4.1759      2.00000
     45      -4.0992      2.00000
     46      -3.9997      2.00000
     47      -3.7119      2.00000
     48      -3.6691      2.00000
     49      -3.6224      2.00000
     50      -3.5221      2.00000
     51      -3.4891      2.00000
     52      -3.3374      2.00000
     53      -3.2159      2.00000
     54      -3.0879      2.00000
     55      -2.9757      2.00000
     56      -2.8252      2.00000
     57      -2.7287      2.00001
     58      -2.6472      2.00009
     59      -2.5359      2.00168
     60      -2.4839      2.00517
     61      -2.4491      2.01003
     62      -2.3397      2.04709
     63      -2.2526      2.06923
     64      -2.2412      2.06502
     65      -2.1772      1.96820
     66      -2.1276      1.77189
     67      -1.9363      0.34478
     68      -1.7653     -0.06998
     69      -1.5481     -0.00409
     70      -0.7399      0.00000
     71       0.1376      0.00000
     72       0.7663      0.00000
     73       1.2515      0.00000
     74       2.5450      0.00000
     75       3.2802      0.00000

 k-point  14 :       0.2500   -0.3750    0.0000
  band No.  band energies     occupation 
      1     -20.7818      2.00000
      2      -9.3710      2.00000
      3      -9.1950      2.00000
      4      -8.6688      2.00000
      5      -8.1699      2.00000
      6      -7.9616      2.00000
      7      -7.8834      2.00000
      8      -7.6523      2.00000
      9      -7.5640      2.00000
     10      -7.4458      2.00000
     11      -7.3711      2.00000
     12      -7.3233      2.00000
     13      -7.1971      2.00000
     14      -7.0869      2.00000
     15      -7.0209      2.00000
     16      -6.9093      2.00000
     17      -6.8279      2.00000
     18      -6.7637      2.00000
     19      -6.7235      2.00000
     20      -6.6681      2.00000
     21      -6.5707      2.00000
     22      -6.4486      2.00000
     23      -6.3207      2.00000
     24      -6.2044      2.00000
     25      -6.0864      2.00000
     26      -5.9647      2.00000
     27      -5.9036      2.00000
     28      -5.8185      2.00000
     29      -5.7632      2.00000
     30      -5.6950      2.00000
     31      -5.6582      2.00000
     32      -5.5821      2.00000
     33      -5.4643      2.00000
     34      -5.4209      2.00000
     35      -5.0470      2.00000
     36      -4.9772      2.00000
     37      -4.8802      2.00000
     38      -4.8625      2.00000
     39      -4.8276      2.00000
     40      -4.7429      2.00000
     41      -4.6369      2.00000
     42      -4.5887      2.00000
     43      -4.3688      2.00000
     44      -4.1742      2.00000
     45      -4.1555      2.00000
     46      -3.9373      2.00000
     47      -3.7749      2.00000
     48      -3.6615      2.00000
     49      -3.6054      2.00000
     50      -3.5451      2.00000
     51      -3.4995      2.00000
     52      -3.3045      2.00000
     53      -3.1792      2.00000
     54      -3.0846      2.00000
     55      -2.9961      2.00000
     56      -2.8439      2.00000
     57      -2.7112      2.00001
     58      -2.6600      2.00006
     59      -2.4959      2.00404
     60      -2.4681      2.00704
     61      -2.4124      2.01852
     62      -2.3827      2.02850
     63      -2.2933      2.06640
     64      -2.2462      2.06723
     65      -2.1845      1.98710
     66      -2.1144      1.69872
     67      -1.9445      0.39722
     68      -1.7371     -0.06178
     69      -1.4742     -0.00075
     70      -0.7653      0.00000
     71       0.3550      0.00000
     72       0.5756      0.00000
     73       1.3231      0.00000
     74       2.5574      0.00000
     75       3.3086      0.00000


--------------------------------------------------------------------------------------------------------


 soft charge-density along one line, spin component           1
         0         1         2         3         4         5         6         7         8         9
 total charge-density along one line
 
 pseudopotential strength for first ion, spin component:           1
 13.488  -0.483   0.003   0.074   0.006   0.000  -0.004   0.000
 -0.483   0.112   0.000  -0.010  -0.001   0.000   0.002   0.000
  0.003   0.000 -10.137  -0.005   0.023   0.211   0.001  -0.004
  0.074  -0.010  -0.005 -10.145  -0.008   0.001   0.213   0.001
  0.006  -0.001   0.023  -0.008 -10.110  -0.004   0.001   0.207
  0.000   0.000   0.211   0.001  -0.004   0.151   0.000   0.001
 -0.004   0.002   0.001   0.213   0.001   0.000   0.151   0.000
  0.000   0.000  -0.004   0.001   0.207   0.001   0.000   0.153
 total augmentation occupancy for first ion, spin component:           1
  1.959   0.160   0.003   0.142   0.006  -0.002  -0.008  -0.003
  0.160   0.030  -0.005  -0.104  -0.009  -0.001  -0.017  -0.001
  0.003  -0.005   1.424  -0.010   0.061   0.146   0.004  -0.014
  0.142  -0.104  -0.010   1.423  -0.017   0.004   0.150   0.007
  0.006  -0.009   0.061  -0.017   1.495  -0.014   0.007   0.130
 -0.002  -0.001   0.146   0.004  -0.014   0.019   0.001  -0.002
 -0.008  -0.017   0.004   0.150   0.007   0.001   0.022   0.001
 -0.003  -0.001  -0.014   0.007   0.130  -0.002   0.001   0.016


------------------------ aborting loop because EDIFF is reached ----------------------------------------


    CHARGE:  cpu time    6.53: real time    6.54
    FORLOC:  cpu time    0.20: real time    0.20
    FORNL :  cpu time   51.67: real time   51.69
    STRESS:  cpu time   62.49: real time   62.50
    FORCOR:  cpu time    1.14: real time    1.14
    FORHAR:  cpu time    0.44: real time    0.44
    MIXING:  cpu time    0.04: real time    0.04

  FORCE on cell =-STRESS in cart. coord.  units (eV):
  Direction    XX          YY          ZZ          XY          YZ          ZX
  --------------------------------------------------------------------------------------
  Alpha Z   341.47240   341.47240   341.47240
  Ewald   53981.31426 54027.17561-60823.95495   -39.71709     8.05984    13.96006
  Hartree 55782.19628 55796.60456-55125.66115   -12.47794     1.86863     3.23656
  E(xc)    -561.14353  -560.98549  -565.03365    -0.13687     0.01827     0.03165
  Local  ************************114211.88945    46.52405    -8.47387   -14.67717
  n-local  -421.41865  -414.07567  -426.05708     0.71128     0.33063    -0.00049
  augment   471.34436   470.03599   486.93112     1.13312    -0.22060    -0.39317
  Kinetic  1853.67611  1849.25103  1908.48205     6.45122    -0.50002    -2.06980
  Fock        0.00000     0.00000     0.00000     0.00000     0.00000     0.00000
  -------------------------------------------------------------------------------------
  Total      -5.50690    -5.58163     8.06818     0.06472     0.30926     0.53566
  in kB     -13.51608   -13.69949    19.80246     0.15884     0.75905     1.31471
  external pressure =       -2.47 kB  Pullay stress =        0.00 kB


 VOLUME and BASIS-vectors are now :
 -----------------------------------------------------------------------------
  energy-cutoff  :      350.00
  volume of cell :      652.78
      direct lattice vectors                 reciprocal lattice vectors
     5.543717165  0.000000000  0.000000000     0.180384383 -0.104144972  0.000000000
     2.771858582  4.800999896  0.000000000     0.000000000  0.208289944  0.000000000
     0.000000000  0.000000000 24.526426110     0.000000000  0.000000000  0.040772349

  length of vectors
     5.543717165  5.543717165 24.526426110     0.208289944  0.208289944  0.040772349


 FORCES acting on ions
    electron-ion (+dipol)            ewald-force                    non-local-force                 convergence-correction
 -----------------------------------------------------------------------------------------------
   -.771E+01 -.445E+01 -.164E+04   0.100E+02 0.580E+01 0.167E+04   -.213E+01 -.123E+01 -.305E+02   -.140E-01 -.806E-02 -.478E-01
   0.200E+00 0.115E+00 0.206E+04   -.253E+00 -.146E+00 -.206E+04   -.639E-01 -.369E-01 0.324E+00   0.145E-01 0.838E-02 0.668E-01
   -.205E+00 0.444E-01 0.206E+04   0.252E+00 -.958E-01 -.206E+04   0.725E-01 -.246E-01 0.332E+00   -.144E-01 -.425E-02 0.733E-01
   -.638E-01 -.199E+00 0.206E+04   0.432E-01 0.266E+00 -.206E+04   0.150E-01 0.751E-01 0.332E+00   -.109E-01 -.104E-01 0.733E-01
   0.111E+00 0.639E-01 0.206E+04   -.425E-01 -.245E-01 -.206E+04   -.273E-01 -.158E-01 0.168E+00   0.106E-01 0.609E-02 0.637E-01
   0.205E+01 -.301E+00 0.140E+03   -.209E+01 0.410E+00 -.140E+03   -.201E-01 0.921E-02 0.844E-01   0.102E-02 -.196E-03 0.859E-01
   -.218E+01 -.126E+01 0.151E+03   0.229E+01 0.132E+01 -.152E+03   -.104E+00 -.598E-01 0.134E+00   -.794E-03 -.458E-03 0.860E-01
   -.948E+00 -.547E+00 0.140E+03   0.613E+00 0.354E+00 -.139E+03   0.142E+00 0.819E-01 0.752E-01   -.425E-03 -.245E-03 0.877E-01
   0.763E+00 0.192E+01 0.140E+03   -.688E+00 -.201E+01 -.140E+03   -.206E-02 -.220E-01 0.844E-01   0.339E-03 0.980E-03 0.859E-01
   0.138E+02 0.796E+01 -.184E+04   -.143E+02 -.827E+01 0.184E+04   0.300E+00 0.173E+00 0.220E+00   -.133E-01 -.768E-02 0.109E-01
   -.267E+02 0.111E+03 -.175E+04   0.272E+02 -.113E+03 0.175E+04   -.263E+00 0.178E+01 -.309E+00   0.141E-01 0.148E-02 -.864E-02
   0.825E+02 -.785E+02 -.175E+04   -.840E+02 0.799E+02 0.175E+04   0.141E+01 -.112E+01 -.309E+00   0.831E-02 0.114E-01 -.864E-02
   -.591E+02 -.341E+02 -.181E+04   0.609E+02 0.352E+02 0.181E+04   -.178E+01 -.103E+01 0.108E+01   -.897E-02 -.518E-02 0.431E-02
 -----------------------------------------------------------------------------------------------
   0.246E+01 0.142E+01 0.278E+02   0.711E-13 0.355E-13 0.455E-12   -.245E+01 -.141E+01 -.283E+02   -.140E-01 -.810E-02 0.573E+00
 
 
 POSITION                                       TOTAL-FORCE (eV/Angst)
 -----------------------------------------------------------------------------------
      2.42851      1.40210     15.94400         0.193547      0.111744     -0.051949
      1.38593      0.80017     10.00000        -0.103116     -0.059534     -0.589662
      4.15779      0.80017     10.00000         0.105517     -0.080362     -0.671146
      2.77186      3.20067     10.00000        -0.016838      0.131561     -0.671146
      5.54372      3.20067     10.00000         0.051182      0.029550     -0.481272
      5.54372      1.60033     12.26321        -0.059192      0.118234     -0.013940
      2.77186      1.60033     12.26321        -0.000003     -0.000002     -0.602090
      6.92965      4.00083     12.26321        -0.193932     -0.111967      0.470323
      4.15779      4.00083     12.26321         0.072798     -0.110379     -0.013940
      0.00000      0.00000     14.52643        -0.245934     -0.141990      0.166475
      2.77186      0.00000     14.52643         0.264040     -0.250524      0.874275
      1.38593      2.40050     14.52643        -0.084940      0.353927      0.874275
      4.15779      2.40050     14.52643         0.016871      0.009740      0.709799
 -----------------------------------------------------------------------------------
    total drift:                                0.003379      0.001951      0.066082


--------------------------------------------------------------------------------------------------------



  FREE ENERGIE OF THE ION-ELECTRON SYSTEM (eV)
  ---------------------------------------------------
  free  energy   TOTEN  =       -73.130586 eV

  energy  without entropy=      -73.092562  energy(sigma->0) =      -73.117912
 
 d Force = 0.4749379E-03[-0.262E-03, 0.121E-02]  d Energy = 0.5162611E-03-0.413E-04
 d Force = 0.1617570E+02[ 0.162E+02, 0.162E+02]  d Ewald  = 0.1617572E+02-0.184E-04


--------------------------------------------------------------------------------------------------------


    POTLOK:  cpu time    1.12: real time    1.12


--------------------------------------------------------------------------------------------------------


  energy of chain is (eV)         0.000000 for this image         0.000000
  tangential force (eV/A)         0.234676
  left and right image   0.407021  0.405827 A
 TANGENT                                        CHAIN-FORCE (eV/Angst)
 -----------------------------------------------------------------------------------
      0.85629      0.49438     -0.14954        -0.200950     -0.116019      0.035093
      0.00000      0.00000      0.00000         0.000000      0.000000      0.000000
      0.00000      0.00000      0.00000         0.000000      0.000000      0.000000
      0.00000      0.00000      0.00000         0.000000      0.000000      0.000000
      0.00000      0.00000      0.00000         0.000000      0.000000      0.000000
      0.00000      0.00000      0.00000         0.000000      0.000000      0.000000
      0.00000      0.00000      0.00000         0.000000      0.000000      0.000000
      0.00000      0.00000      0.00000         0.000000      0.000000      0.000000
      0.00000      0.00000      0.00000         0.000000      0.000000      0.000000
      0.00000      0.00000      0.00000         0.000000      0.000000      0.000000
      0.00000      0.00000      0.00000         0.000000      0.000000      0.000000
      0.00000      0.00000      0.00000         0.000000      0.000000      0.000000
      0.00000      0.00000      0.00000         0.000000      0.000000      0.000000
 -----------------------------------------------------------------------------------
 CHAIN + TOTAL  (eV/Angst)
 ----------------------------------------------
     -0.00740     -0.00427     -0.01686
      0.00000      0.00000      0.00000
      0.00000      0.00000      0.00000
      0.00000      0.00000      0.00000
      0.00000      0.00000      0.00000
      0.00000      0.00000      0.00000
      0.00000      0.00000      0.00000
      0.00000      0.00000      0.00000
      0.00000      0.00000      0.00000
      0.00000      0.00000      0.00000
      0.00000      0.00000      0.00000
      0.00000      0.00000      0.00000
      0.00000      0.00000      0.00000
 ----------------------------------------------
 Quasi-Newton relaxation of ions (Broydens 2nd method)
  g(Force)  = 0.650E-04   g(Stress)= 0.000E+00

 retain information from N=  1 steps
 eigenvalues of (default step * inverse Hessian matrix)
  average eigenvalue of G=   1.3146
 eigenvalue spectrum of G is  1.3146


--------------------------------------------------------------------------------------------------------


  
 reached required accuracy - stopping structural energy minimisation
 writing wavefunctions
     LOOP+:  cpu time  747.17: real time  750.35
    4ORBIT:  cpu time    0.00: real time    0.00

 total amount of memory used by VASP on root node   306212. kBytes
========================================================================

   base      :      30000. kBytes
   nonl-proj :      41318. kBytes
   fftplans  :      24100. kBytes
   grid      :      43113. kBytes
   one-center:        202. kBytes
   wavefun   :     167479. kBytes
 
  
  
 General timing and accounting informations for this job:
 ========================================================
  
                  Total CPU time used (sec):     3067.099
                            User time (sec):     3050.672
                          System time (sec):       16.427
                         Elapsed time (sec):     3095.231
  
                   Maximum memory used (kb):           0.
                   Average memory used (kb):           0.
  
                          Minor page faults:       429962
                          Major page faults:            0
                 Voluntary context switches:        16600
