 running on    3 nodes
 each image running on    1 nodes
 distr:  one band on    1 nodes,    1 groups
 vasp.5.2.12 11Nov11 complex                                                    
  
 01/POSCAR found :  2 types and      13 ions
 LDA part: xc-table for Pade appr. of Perdew
 00/POSCAR found :  2 types and      13 ions
 04/POSCAR found :  2 types and      13 ions
 found WAVECAR, reading the header
 POSCAR, INCAR and KPOINTS ok, starting setup
 WARNING: small aliasing (wrap around) errors must be expected
 FFT: planning ...(           5 )
 reading WAVECAR
 the WAVECAR file was read sucessfully
 initial charge from wavefunction
 entering main loop
       N       E                     dE             d eps       ncg     rms          rms(c)
DAV:   1    -0.737412896639E+02   -0.73741E+02   -0.10793E+01  2116   0.139E+01    0.295E+00
DAV:   2    -0.746292697581E+02   -0.88798E+00   -0.47242E+00  3640   0.185E+01    0.739E+00
DAV:   3    -0.735097839278E+02    0.11195E+01   -0.26567E+00  3864   0.167E+01    0.273E+00
DAV:   4    -0.734370763219E+02    0.72708E-01   -0.78735E-01  3565   0.587E+00    0.182E+00
DAV:   5    -0.733825464486E+02    0.54530E-01   -0.44464E-01  3182   0.494E+00    0.106E+00
DAV:   6    -0.733568177110E+02    0.25729E-01   -0.12548E-01  3325   0.284E+00    0.324E-01
DAV:   7    -0.733572657667E+02   -0.44806E-03   -0.26343E-02  2938   0.117E+00    0.335E-01
DAV:   8    -0.733552831981E+02    0.19826E-02   -0.61214E-03  3045   0.668E-01    0.129E-01
DAV:   9    -0.733549762527E+02    0.30695E-03   -0.16098E-03  2885   0.308E-01    0.974E-02
DAV:  10    -0.733546165204E+02    0.35973E-03   -0.13980E-03  2711   0.281E-01    0.788E-02
DAV:  11    -0.733545028974E+02    0.11362E-03   -0.58350E-04  1429   0.208E-01    0.512E-02
DAV:  12    -0.733544946805E+02    0.82168E-05   -0.17777E-04  1165   0.122E-01
   1 F= -.73354495E+02 E0= -.73346118E+02  d E =-.733545E+02
 BRION: g(F)=  0.184E-01 g(S)=  0.000E+00
 bond charge predicted
       N       E                     dE             d eps       ncg     rms          rms(c)
DAV:   1    -0.733562423481E+02   -0.17395E-02   -0.31250E+00  2100   0.715E+00    0.373E-01
DAV:   2    -0.733641488449E+02   -0.79065E-02   -0.79493E-02  2631   0.128E+00    0.343E-01
DAV:   3    -0.733680861425E+02   -0.39373E-02   -0.33492E-02  3488   0.154E+00    0.574E-01
DAV:   4    -0.733628088372E+02    0.52773E-02   -0.14997E-02  3405   0.970E-01    0.144E-01
DAV:   5    -0.733627944498E+02    0.14387E-04   -0.80731E-04  1997   0.230E-01
   2 F= -.73362794E+02 E0= -.73354398E+02  d E =-.829977E-02
 BRION: g(F)=  0.205E-02 g(S)=  0.000E+00 retain N=  1 mean eig= 1.50
 eig:   1.503
 bond charge predicted
       N       E                     dE             d eps       ncg     rms          rms(c)
DAV:   1    -0.733623963191E+02    0.41252E-03   -0.68913E-01  2100   0.339E+00    0.189E-01
DAV:   2    -0.733645732866E+02   -0.21770E-02   -0.20557E-02  2728   0.767E-01    0.241E-01
DAV:   3    -0.733642385193E+02    0.33477E-03   -0.75973E-03  3296   0.707E-01    0.181E-01
DAV:   4    -0.733643254332E+02   -0.86914E-04   -0.41581E-03  2232   0.535E-01    0.185E-01
DAV:   5    -0.733638096123E+02    0.51582E-03   -0.13518E-03  1544   0.347E-01    0.460E-02
DAV:   6    -0.733638892671E+02   -0.79655E-04   -0.19755E-04  1304   0.119E-01
   3 F= -.73363889E+02 E0= -.73355655E+02  d E =-.109482E-02
 BRION: g(F)=  0.555E-04 g(S)=  0.000E+00 retain N=  1 mean eig= 1.32
 eig:   1.317
 reached required accuracy - stopping structural energy minimisation
 writing wavefunctions
NPROCS =  3
