<?xml version="1.0" encoding="ISO-8859-1"?>
<modeling>
 <generator>
  <i name="program" type="string">vasp </i>
  <i name="version" type="string">5.2.12  </i>
  <i name="subversion" type="string">11Nov11 complex                                                      parallel </i>
  <i name="platform" type="string">LinuxIFC </i>
  <i name="date" type="string">2012 09 18 </i>
  <i name="time" type="string">22:42:07 </i>
 </generator>
 <incar>
  <i type="string" name="PREC">normal</i>
  <i type="int" name="IBRION">     1</i>
  <i type="int" name="NSW">    90</i>
  <i name="ENCUT">    350.00000000</i>
  <i type="int" name="NBANDS">    75</i>
  <i name="SPRING">     -5.00000000</i>
 </incar>
 <kpoints>
  <generation param="Monkhorst-Pack">
   <v type="int" name="divisions">       4        4        1 </v>
   <v name="usershift">      0.00000000       0.00000000       0.00000000 </v>
   <v name="genvec1">      0.25000000       0.00000000       0.00000000 </v>
   <v name="genvec2">      0.00000000       0.25000000       0.00000000 </v>
   <v name="genvec3">      0.00000000       0.00000000       1.00000000 </v>
   <v name="shift">      0.50000000       0.50000000       0.00000000 </v>
  </generation>
  <varray name="kpointlist" >
   <v>       0.12500000       0.12500000       0.00000000 </v>
   <v>       0.00000000       0.12500000       0.00000000 </v>
   <v>       0.37500000       0.12500000       0.00000000 </v>
   <v>       0.25000000       0.37500000       0.00000000 </v>
   <v>      -0.12500000       0.25000000       0.00000000 </v>
   <v>      -0.37500000       0.12500000       0.00000000 </v>
   <v>       0.50000000      -0.37500000       0.00000000 </v>
   <v>      -0.12500000       0.50000000       0.00000000 </v>
   <v>      -0.12500000       0.12500000       0.00000000 </v>
   <v>      -0.25000000      -0.12500000       0.00000000 </v>
   <v>       0.37500000       0.37500000       0.00000000 </v>
   <v>       0.00000000       0.37500000       0.00000000 </v>
   <v>      -0.37500000       0.37500000       0.00000000 </v>
   <v>       0.25000000      -0.37500000       0.00000000 </v>
  </varray>
  <varray name="weights" >
   <v>       0.04166667 </v>
   <v>       0.08333333 </v>
   <v>       0.08333333 </v>
   <v>       0.08333333 </v>
   <v>       0.08333333 </v>
   <v>       0.08333333 </v>
   <v>       0.08333333 </v>
   <v>       0.08333333 </v>
   <v>       0.04166667 </v>
   <v>       0.08333333 </v>
   <v>       0.04166667 </v>
   <v>       0.08333333 </v>
   <v>       0.04166667 </v>
   <v>       0.08333333 </v>
  </varray>
 </kpoints>
 <parameters>
  <separator name="general" >
   <i type="string" name="SYSTEM">unknown system</i>
   <i type="logical" name="LCOMPAT"> F  </i>
  </separator>
  <separator name="electronic" >
   <i type="string" name="PREC">normal</i>
   <i name="ENMAX">    350.00000000</i>
   <i name="ENAUG">    605.39200000</i>
   <i name="EDIFF">      0.00010000</i>
   <i type="int" name="IALGO">    38</i>
   <i type="int" name="IWAVPR">    11</i>
   <i type="int" name="NBANDS">    75</i>
   <i name="NELECT">    126.00000000</i>
   <i type="int" name="TURBO">     0</i>
   <i type="int" name="IRESTART">     0</i>
   <i type="int" name="NREBOOT">     0</i>
   <i type="int" name="NMIN">     0</i>
   <i name="EREF">      0.00000000</i>
   <separator name="electronic smearing" >
    <i type="int" name="ISMEAR">     1</i>
    <i name="SIGMA">      0.20000000</i>
    <i name="KSPACING">      0.50000000</i>
    <i type="logical" name="KGAMMA"> T  </i>
   </separator>
   <separator name="electronic projectors" >
    <i type="logical" name="LREAL"> F  </i>
    <v name="ROPT">      0.00000000      0.00000000</v>
    <i type="int" name="LMAXPAW">  -100</i>
    <i type="int" name="LMAXMIX">     2</i>
    <i type="logical" name="NLSPLINE"> F  </i>
   </separator>
   <separator name="electronic startup" >
    <i type="int" name="ISTART">     1</i>
    <i type="int" name="ICHARG">     0</i>
    <i type="int" name="INIWAV">     1</i>
   </separator>
   <separator name="electronic spin" >
    <i type="int" name="ISPIN">     1</i>
    <i type="logical" name="LNONCOLLINEAR"> F  </i>
    <v name="MAGMOM">      1.00000000      1.00000000      1.00000000      1.00000000      1.00000000      1.00000000      1.00000000      1.00000000      1.00000000      1.00000000      1.00000000      1.00000000      1.00000000</v>
    <i name="NUPDOWN">     -1.00000000</i>
    <i type="logical" name="LSORBIT"> F  </i>
    <v name="SAXIS">      0.00000000      0.00000000      1.00000000</v>
    <i type="logical" name="LSPIRAL"> F  </i>
    <v name="QSPIRAL">      0.00000000      0.00000000      0.00000000</v>
    <i type="logical" name="LZEROZ"> F  </i>
   </separator>
   <separator name="electronic exchange-correlation" >
    <i type="logical" name="LASPH"> F  </i>
    <i type="logical" name="LMETAGGA"> F  </i>
   </separator>
   <separator name="electronic convergence" >
    <i type="int" name="NELM">    60</i>
    <i type="int" name="NELMDL">     0</i>
    <i type="int" name="NELMIN">     2</i>
    <i name="ENINI">    350.00000000</i>
    <separator name="electronic convergence detail" >
     <i type="logical" name="LDIAG"> T  </i>
     <i type="logical" name="LSUBROT"> T  </i>
     <i name="WEIMIN">      0.00100000</i>
     <i name="EBREAK">      0.00000033</i>
     <i name="DEPER">      0.30000000</i>
     <i type="int" name="NRMM">     4</i>
     <i name="TIME">      0.40000000</i>
    </separator>
   </separator>
   <separator name="electronic mixer" >
    <i name="AMIX">      0.40000000</i>
    <i name="BMIX">      1.00000000</i>
    <i name="AMIN">      0.10000000</i>
    <i name="AMIX_MAG">      1.60000000</i>
    <i name="BMIX_MAG">      1.00000000</i>
    <separator name="electronic mixer details" >
     <i type="int" name="IMIX">     4</i>
     <i type="int" name="MAXMIX">   -45</i>
     <i name="WC">    100.00000000</i>
     <i type="int" name="INIMIX">     1</i>
     <i type="int" name="MIXPRE">     1</i>
     <i type="int" name="MREMOVE">     5</i>
    </separator>
   </separator>
   <separator name="electronic dipolcorrection" >
    <i type="logical" name="LDIPOL"> F  </i>
    <i type="logical" name="LMONO"> F  </i>
    <i type="int" name="IDIPOL">     0</i>
    <i name="EPSILON">      1.00000000</i>
    <v name="DIPOL">   -100.00000000   -100.00000000   -100.00000000</v>
    <i name="EFIELD">      0.00000000</i>
   </separator>
  </separator>
  <separator name="grids" >
   <i type="int" name="NGX">    28</i>
   <i type="int" name="NGY">    28</i>
   <i type="int" name="NGZ">   112</i>
   <i type="int" name="NGXF">    56</i>
   <i type="int" name="NGYF">    56</i>
   <i type="int" name="NGZF">   224</i>
   <i type="logical" name="ADDGRID"> F  </i>
  </separator>
  <separator name="ionic" >
   <i type="int" name="NSW">    90</i>
   <i type="int" name="IBRION">     1</i>
   <i type="int" name="ISIF">     2</i>
   <i name="PSTRESS">      0.00000000</i>
   <i name="EDIFFG">      0.00100000</i>
   <i type="int" name="NFREE">     0</i>
   <i name="POTIM">      0.50000000</i>
   <i name="SMASS">     -3.00000000</i>
   <i name="SCALEE">      1.00000000</i>
  </separator>
  <separator name="ionic md" >
   <i name="TEBEG">      0.00010000</i>
   <i name="TEEND">      0.00010000</i>
   <i type="int" name="NBLOCK">     1</i>
   <i type="int" name="KBLOCK">    90</i>
   <i type="int" name="NPACO">   256</i>
   <i name="APACO">     16.00000000</i>
  </separator>
  <separator name="symmetry" >
   <i type="int" name="ISYM">     2</i>
   <i name="SYMPREC">      0.00001000</i>
  </separator>
  <separator name="dos" >
   <i type="logical" name="LORBIT"> F  </i>
   <v name="RWIGS">     -1.00000000     -1.00000000</v>
   <i type="int" name="NEDOS">   301</i>
   <i name="EMIN">     10.00000000</i>
   <i name="EMAX">    -10.00000000</i>
   <i name="EFERMI">      0.00000000</i>
  </separator>
  <separator name="writing" >
   <i type="int" name="NWRITE">     2</i>
   <i type="logical" name="LWAVE"> T  </i>
   <i type="logical" name="LCHARG"> T  </i>
   <i type="logical" name="LPARD"> F  </i>
   <i type="logical" name="LVTOT"> F  </i>
   <i type="logical" name="LVHAR"> F  </i>
   <i type="logical" name="LELF"> F  </i>
   <i type="logical" name="LOPTICS"> F  </i>
   <v name="STM">      0.00000000      0.00000000      0.00000000      0.00000000      0.00000000      0.00000000      0.00000000</v>
  </separator>
  <separator name="performance" >
   <i type="int" name="NPAR">     1</i>
   <i type="int" name="NSIM">     4</i>
   <i type="int" name="NBLK">    -1</i>
   <i type="logical" name="LPLANE"> T  </i>
   <i type="logical" name="LSCALAPACK"> F  </i>
   <i type="logical" name="LSCAAWARE"> F  </i>
   <i type="logical" name="LSCALU"> F  </i>
   <i type="logical" name="LASYNC"> F  </i>
   <i type="logical" name="LORBITALREAL"> F  </i>
  </separator>
  <separator name="miscellaneous" >
   <i type="int" name="IDIOT">     3</i>
   <i type="logical" name="LMUSIC"> F  </i>
   <v name="POMASS">     16.00000000    195.08000000</v>
   <v name="DARWINR">      0.00000000      0.00000000</v>
   <v name="DARWINV">      1.00000000      1.00000000</v>
   <i type="logical" name="LCORR"> T  </i>
  </separator>
  <i type="logical" name="GGA_COMPAT"> T  </i>
  <i type="logical" name="LBERRY"> F  </i>
  <i type="int" name="ICORELEVEL">     0</i>
  <i type="logical" name="LDAU"> F  </i>
  <i type="int" name="I_CONSTRAINED_M">     0</i>
  <separator name="electronic exchange-correlation" >
   <i type="string" name="GGA">--</i>
   <i type="int" name="VOSKOWN">     0</i>
   <i type="logical" name="LHFCALC"> F  </i>
   <i type="string" name="PRECFOCK"></i>
   <i type="logical" name="LHFONE"> F  </i>
   <i type="logical" name="LRHFCALC"> F  </i>
   <i type="logical" name="LTHOMAS"> F  </i>
   <i type="logical" name="LMODELHF"> F  </i>
   <i name="ENCUT4O">     -1.00000000</i>
   <i type="int" name="EXXOEP">     0</i>
   <i type="int" name="FOURORBIT">     0</i>
   <i name="AEXX">      0.00000000</i>
   <i name="HFALPHA">      0.00000000</i>
   <i name="ALDAX">      1.00000000</i>
   <i name="AGGAX">      1.00000000</i>
   <i name="ALDAC">      1.00000000</i>
   <i name="AGGAC">      1.00000000</i>
   <i type="int" name="NKREDX">     1</i>
   <i type="int" name="NKREDY">     1</i>
   <i type="int" name="NKREDZ">     1</i>
   <i type="logical" name="SHIFTRED"> F  </i>
   <i type="logical" name="ODDONLY"> F  </i>
   <i type="logical" name="EVENONLY"> F  </i>
   <i type="int" name="LMAXFOCK">     0</i>
   <i type="int" name="NMAXFOCKAE">     0</i>
   <i type="logical" name="LFOCKAEDFT"> F  </i>
   <i name="HFSCREEN">      0.00000000</i>
   <i name="HFSCREENC">      0.00000000</i>
  </separator>
  <separator name="vdW DFT" >
   <i type="logical" name="LUSE_VDW"> F  </i>
   <i name="Zab_VDW">     -0.84910000</i>
   <i name="PARAM1">      0.12340000</i>
   <i name="PARAM2">      1.00000000</i>
   <i name="PARAM3">      0.00000000</i>
  </separator>
  <separator name="model GW" >
   <i type="int" name="MODEL_GW">     0</i>
   <i name="MODEL_EPS0">     30.12832092</i>
   <i name="MODEL_ALPHA">      1.00000000</i>
  </separator>
  <separator name="linear response parameters" >
   <i type="logical" name="LEPSILON"> F  </i>
   <i type="logical" name="LRPA"> F  </i>
   <i type="logical" name="LNABLA"> F  </i>
   <i type="logical" name="LVEL"> F  </i>
   <i type="int" name="KINTER">     0</i>
   <i name="CSHIFT">      0.10000000</i>
   <i name="OMEGAMAX">     -1.00000000</i>
  </separator>
  <separator name="orbital magnetization" >
   <i type="logical" name="NUCIND"> F  </i>
   <v name="MAGPOS">      0.00000000      0.00000000      0.00000000</v>
   <i type="logical" name="LNICSALL"> T  </i>
   <i type="logical" name="ORBITALMAG"> F  </i>
   <i type="logical" name="LMAGBLOCH"> F  </i>
   <i type="logical" name="LCHIMAG"> F  </i>
   <i type="logical" name="LGAUGE"> T  </i>
   <i type="int" name="MAGATOM">     0</i>
   <v name="MAGDIPOL">      0.00000000      0.00000000      0.00000000</v>
   <v name="AVECCONST">      0.00000000      0.00000000      0.00000000</v>
  </separator>
  <separator name="response functions" >
   <i type="logical" name="LADDER"> F  </i>
   <i type="logical" name="LHARTREE"> T  </i>
   <i type="int" name="IBSE">     0</i>
   <i type="logical" name="LTCTE"> F  </i>
   <i type="logical" name="LTETE"> F  </i>
   <i type="logical" name="LFXCEPS"> F  </i>
   <i type="logical" name="L2ORDER"> F  </i>
   <i type="logical" name="LUSEW"> F  </i>
   <i name="ENCUTGW">     -2.00000000</i>
   <i name="ENCUTGWSOFT">     -2.00000000</i>
   <i name="ENCUTLF">     -1.00000000</i>
   <i type="int" name="LMAXMP2">    -1</i>
   <i name="SCISSOR">      0.00000000</i>
   <i type="int" name="NOMEGA">     0</i>
   <i type="int" name="NOMEGAR">     0</i>
   <i type="int" name="NBANDSGW">    -1</i>
   <i type="int" name="NBANDSO">    -1</i>
   <i type="int" name="NBANDSV">    -1</i>
   <i name="OPTEMAX">      0.00000000</i>
   <i type="int" name="NELM">     1</i>
   <i type="int" name="DIM">     3</i>
   <i type="int" name="ANTIRES">     0</i>
   <i name="OMEGAMAX">    -30.00000000</i>
   <i name="OMEGATL">   -200.00000000</i>
   <i type="int" name="OMEGAGRID">     0</i>
   <i name="CSHIFT">     -0.10000000</i>
   <i type="logical" name="SELFENERGY"> F  </i>
   <i type="logical" name="LSPECTRAL"> F  </i>
   <i type="logical" name="ODDONLYGW"> F  </i>
   <i type="logical" name="EVENONLYGW"> F  </i>
   <i type="int" name="NKREDLFX">     1</i>
   <i type="int" name="NKREDLFY">     1</i>
   <i type="int" name="NKREDLFZ">     1</i>
   <i type="int" name="MAXMEM">  1800</i>
   <i type="int" name="TELESCOPE">     0</i>
  </separator>
 </parameters>
 <atominfo>
  <atoms>      13 </atoms>
  <types>       2 </types>
  <array name="atoms" >
   <dimension dim="1">ion</dimension>
   <field type="string">element</field>
   <field type="int">atomtype</field>
   <set>
    <rc><c>O </c><c>   1</c></rc>
    <rc><c>Pt</c><c>   2</c></rc>
    <rc><c>Pt</c><c>   2</c></rc>
    <rc><c>Pt</c><c>   2</c></rc>
    <rc><c>Pt</c><c>   2</c></rc>
    <rc><c>Pt</c><c>   2</c></rc>
    <rc><c>Pt</c><c>   2</c></rc>
    <rc><c>Pt</c><c>   2</c></rc>
    <rc><c>Pt</c><c>   2</c></rc>
    <rc><c>Pt</c><c>   2</c></rc>
    <rc><c>Pt</c><c>   2</c></rc>
    <rc><c>Pt</c><c>   2</c></rc>
    <rc><c>Pt</c><c>   2</c></rc>
   </set>
  </array>
  <array name="atomtypes" >
   <dimension dim="1">type</dimension>
   <field type="int">atomspertype</field>
   <field type="string">element</field>
   <field>mass</field>
   <field>valence</field>
   <field type="string">pseudopotential</field>
   <set>
    <rc><c>   1</c><c>O </c><c>     16.00000000</c><c>      6.00000000</c><c> PAW_PBE O 08Apr2002                    </c></rc>
    <rc><c>  12</c><c>Pt</c><c>    195.08000000</c><c>     10.00000000</c><c> PAW_PBE Pt 05Jan2001                   </c></rc>
   </set>
  </array>
 </atominfo>
 <structure name="initialpos" >
  <crystal>
   <varray name="basis" >
    <v>       5.54371716       0.00000000       0.00000000 </v>
    <v>       2.77185858       4.80099990       0.00000000 </v>
    <v>       0.00000000       0.00000000      24.52642611 </v>
   </varray>
   <i name="volume">    652.78028659 </i>
   <varray name="rec_basis" >
    <v>       0.18038438      -0.10414497       0.00000000 </v>
    <v>       0.00000000       0.20828994       0.00000000 </v>
    <v>       0.00000000       0.00000000       0.04077235 </v>
   </varray>
  </crystal>
  <varray name="positions" >
   <v>       0.25000000       0.25000000       0.65143719 </v>
   <v>       0.16666667       0.16666667       0.40772349 </v>
   <v>       0.66666667       0.16666667       0.40772349 </v>
   <v>       0.16666667       0.66666667       0.40772349 </v>
   <v>       0.66666667       0.66666667       0.40772349 </v>
   <v>       0.83333333       0.33333333       0.50000000 </v>
   <v>       0.33333333       0.33333333       0.50000000 </v>
   <v>       0.83333333       0.83333333       0.50000000 </v>
   <v>       0.33333333       0.83333333       0.50000000 </v>
   <v>       0.00000000       0.00000000       0.59227651 </v>
   <v>       0.50000000       0.00000000       0.59227651 </v>
   <v>       0.00000000       0.50000000       0.59227651 </v>
   <v>       0.50000000       0.50000000       0.59227651 </v>
  </varray>
  <varray name="selective"  type="logical" >
   <v type="logical" >  T  T  T </v>
   <v type="logical" >  F  F  F </v>
   <v type="logical" >  F  F  F </v>
   <v type="logical" >  F  F  F </v>
   <v type="logical" >  F  F  F </v>
   <v type="logical" >  F  F  F </v>
   <v type="logical" >  F  F  F </v>
   <v type="logical" >  F  F  F </v>
   <v type="logical" >  F  F  F </v>
   <v type="logical" >  F  F  F </v>
   <v type="logical" >  F  F  F </v>
   <v type="logical" >  F  F  F </v>
   <v type="logical" >  F  F  F </v>
  </varray>
  <nose>
   <v>      -3.00000000       0.00000000       0.00010000       0.00010000 </v>
  </nose>
 </structure>
 <calculation>
  <scstep>
   <time name="dav">  117.98  118.01</time>
   <time name="total">  125.72  125.75</time>
   <energy>
    <i name="alphaZ">    341.47239739 </i>
    <i name="ewald">  47131.47991863 </i>
    <i name="hartreedc"> -56396.55105142 </i>
    <i name="XCdc">     65.01656380 </i>
    <i name="pawpsdc">   7409.22079229 </i>
    <i name="pawaedc">  -7101.26057625 </i>
    <i name="eentropy">     -0.03913537 </i>
    <i name="bandstr">   -703.72778923 </i>
    <i name="atom">   9181.23315831 </i>
    <i name="e_fr_energy">    -73.15572186 </i>
    <i name="e_wo_entrp">    -73.11658649 </i>
    <i name="e_0_energy">    -73.14267674 </i>
   </energy>
  </scstep>
  <scstep>
   <time name="dav">  146.01  146.04</time>
   <time name="total">  153.72  153.76</time>
   <energy>
    <i name="e_fr_energy">    -74.31402641 </i>
    <i name="e_wo_entrp">    -74.29258892 </i>
    <i name="e_0_energy">    -74.30688058 </i>
   </energy>
  </scstep>
  <scstep>
   <time name="dav">  146.26  146.29</time>
   <time name="total">  153.98  154.03</time>
   <energy>
    <i name="e_fr_energy">    -73.12337386 </i>
    <i name="e_wo_entrp">    -73.09088538 </i>
    <i name="e_0_energy">    -73.11254437 </i>
   </energy>
  </scstep>
  <scstep>
   <time name="dav">  141.81  141.84</time>
   <time name="total">  149.56  149.61</time>
   <energy>
    <i name="e_fr_energy">    -73.44224904 </i>
    <i name="e_wo_entrp">    -73.41018449 </i>
    <i name="e_0_energy">    -73.43156086 </i>
   </energy>
  </scstep>
  <scstep>
   <time name="dav">  129.67  129.71</time>
   <time name="total">  137.39  137.48</time>
   <energy>
    <i name="e_fr_energy">    -73.38608633 </i>
    <i name="e_wo_entrp">    -73.36678619 </i>
    <i name="e_0_energy">    -73.37965295 </i>
   </energy>
  </scstep>
  <scstep>
   <time name="dav">  134.97  135.01</time>
   <time name="total">  142.72  142.77</time>
   <energy>
    <i name="e_fr_energy">    -73.35663684 </i>
    <i name="e_wo_entrp">    -73.33142877 </i>
    <i name="e_0_energy">    -73.34823415 </i>
   </energy>
  </scstep>
  <scstep>
   <time name="dav">  122.44  122.48</time>
   <time name="total">  130.18  130.23</time>
   <energy>
    <i name="e_fr_energy">    -73.35719397 </i>
    <i name="e_wo_entrp">    -73.33019957 </i>
    <i name="e_0_energy">    -73.34819584 </i>
   </energy>
  </scstep>
  <scstep>
   <time name="dav">  123.55  123.58</time>
   <time name="total">  131.30  131.34</time>
   <energy>
    <i name="e_fr_energy">    -73.35530923 </i>
    <i name="e_wo_entrp">    -73.33097609 </i>
    <i name="e_0_energy">    -73.34719818 </i>
   </energy>
  </scstep>
  <scstep>
   <time name="dav">  121.35  121.39</time>
   <time name="total">  129.09  129.14</time>
   <energy>
    <i name="e_fr_energy">    -73.35498645 </i>
    <i name="e_wo_entrp">    -73.32886590 </i>
    <i name="e_0_energy">    -73.34627960 </i>
   </energy>
  </scstep>
  <scstep>
   <time name="dav">  115.41  115.44</time>
   <time name="total">  123.16  123.20</time>
   <energy>
    <i name="e_fr_energy">    -73.35457738 </i>
    <i name="e_wo_entrp">    -73.32931971 </i>
    <i name="e_0_energy">    -73.34615816 </i>
   </energy>
  </scstep>
  <scstep>
   <time name="dav">   70.90   70.92</time>
   <time name="total">   72.04   72.07</time>
   <energy>
    <i name="alphaZ">    341.47239739 </i>
    <i name="ewald">  47267.22261850 </i>
    <i name="hartreedc"> -56530.59416812 </i>
    <i name="XCdc">     65.18738683 </i>
    <i name="pawpsdc">   7415.69455361 </i>
    <i name="pawaedc">  -7107.93176151 </i>
    <i name="eentropy">     -0.02501564 </i>
    <i name="bandstr">   -705.61365590 </i>
    <i name="atom">   9181.23315831 </i>
    <i name="e_fr_energy">    -73.35448653 </i>
    <i name="e_wo_entrp">    -73.32947089 </i>
    <i name="e_0_energy">    -73.34614799 </i>
   </energy>
  </scstep>
  <parameters_embedded>
   <separator name="dft+d2" >
    <i type="logical" name="LVDW"> F  </i>
   </separator>
  </parameters_embedded>
  <structure>
   <crystal>
    <varray name="basis" >
     <v>       5.54371716       0.00000000       0.00000000 </v>
     <v>       2.77185858       4.80099990       0.00000000 </v>
     <v>       0.00000000       0.00000000      24.52642611 </v>
    </varray>
    <i name="volume">    652.78028659 </i>
    <varray name="rec_basis" >
     <v>       0.18038438      -0.10414497       0.00000000 </v>
     <v>       0.00000000       0.20828994       0.00000000 </v>
     <v>       0.00000000       0.00000000       0.04077235 </v>
    </varray>
   </crystal>
   <varray name="positions" >
    <v>       0.20833333       0.20833333       0.64805211 </v>
    <v>       0.16666667       0.16666667       0.40772349 </v>
    <v>       0.66666667       0.16666667       0.40772349 </v>
    <v>       0.16666667       0.66666667       0.40772349 </v>
    <v>       0.66666667       0.66666667       0.40772349 </v>
    <v>       0.83333333       0.33333333       0.50000000 </v>
    <v>       0.33333333       0.33333333       0.50000000 </v>
    <v>       0.83333333       0.83333333       0.50000000 </v>
    <v>       0.33333333       0  <energy>
   <i name="e_fr_energy">    -73.12719066 </i>
   <i name="e_wo_entrp">    -73.11410926 </i>
   <i name="e_0_energy">     -0.03924421 </i>
  </energy>
  <time name="totalsc"> 1566.22 1567.46</time>
 </calculation>
   <v>       0.50000000       0.50000000       0.59227651 </v>
   </varray>
  </structure>
  <varray name="forces" >
   <v>      -0.85288065      -0.49241087       0.30347307 </v>
   <v>       0.00637152       0.00367860      -0.56277122 </v>
   <v>       0.01133387      -0.06017729      -0.71166574 </v>
   <v>      -0.04644813       0.03990406      -0.71166574 </v>
   <v>       0.09592418       0.05538185      -0.62826745 </v>
   <v>      -0.11050216       0.08355358      -0.22374806 </v>
   <v>       0.08328301       0.04808347      -0.38982399 </v>
   <v>      -0.09706721      -0.05604178       1.16572111 </v>
   <v>       0.01710844      -0.13747447      -0.22374806 </v>
   <v>      -0.35644212      -0.20579196       0.70178200 </v>
   <v>       1.08004280      -0.53147982       0.51577940 </v>
   <v>       0.07974637       1.20108441       0.51577940 </v>
   <v>       0.08953008       0.05169022       0.24915525 </v>
  </varray>
  <varray name="stress" >
   <v>     -13.25655335      -1.29548196      -3.08728442 </v>
   <v>      -1.29548196     -11.76065963      -1.78244449 </v>
   <v>      -3.08727277      -1.78243776      21.97228524 </v>
  </varray>
  <energy>
   <i name="e_fr_energy">    -73.12575567 </i>
   <i name="e_wo_entrp">    -73.11330756 </i>
   <i name="e_0_energy">     -0.03734435 </i>
  </energy>
  <time name="totalsc"> 15   <time name="dav">   89.62   89.64</time>
   <time name="total">   97.34   97.37</time>
   <energy>
    <i name="alphaZ">    341.47   <time name="total">  101.08  101.11</time>
   <energy>
    <i name="alphaZ">    341.47239739 </i>
    <i name="ewald">  47227.94457931 </i>
    <i name="hartreedc"> -56492.96242776 </i>
    <i name="XCdc">     65.13500274 </i>
    <i name="pawpsdc">   7415.47320693 </i>
    <i name="pawaedc">  -7107.71251587 </i>
    <i name="eentropy">     -0.02494678 </i>
    <i name="bandstr">   -703.91455970 </i>
    <i name="atom">   9181.23315831 </i>
    <i name="e_fr_energy">    -73.35610543 </i>
    <i name="e_wo_entrp">    -73.33115866   <time name="dav">  106.15  106.18</time>
   <time name="total">  113.90  113.93</time>
   <energy>
    <i name="e_fr_energy">    -   <time name="total">  115.88  115.92</time>
   <energy>
    <i name="e_fr_energy">    -73.36342441 </i>
    <i name="e_wo_entrp">    -73.33937861   <time name="dav">   72.24   72.25</time>
   <time name="tota   <time name="dav">  129.   <time name="dav">  140.67  140.71</time>
   <time name="total">  148.42  148.48</time>
   <energy>
    <i name="e_fr_energy">    -73.36848801 </i>
    <i name="e_wo_entrp">    -73.34157950 </i>
    <i name="e_0_energy">    -73.35951850 </i>
   </energ   <time name="dav">  111.   <time name="dav">  140.90  140.94</time>
   <time name="total">  148.65  148.75</time>
   <energy>
    <i name="e_fr_energy">    -73.36255738 </i>
    <i name="e_wo_entrp">    -73.33811721 </i>
    <i name="e_0_energy">    -73.35441065 </i>
   </energ   <time name="dav">   72.   <time name="dav">   86.14   86.16</time>
   <time name="total">   87.28   87.32</time>
   <energy>
    <i name="alphaZ">    341.47239739 </i>
    <i name="ewald">  47227.94457931 </i>
    <i name="hartreedc"> -56493.54879604 </i>
    <i name="XCdc">     65.11731163 </i>
    <i name="pawpsdc">   7411.56063033 </i>
    <i name="pawaedc">  -7103.76594716 </i>
    <i name="eentropy">     -0.02492308 </i>
    <i name="bandstr">   -703.35099193 </i>
    <i name="atom">   9181.23315831 </i>
    <i name="e_fr_energy">    -73.36258124 </i>
    <i name="e_wo_entrp">    -73.33765816 </i>
    <i name="e_0_energy">    -73.35427355 </i>  <structure>
   <crystal>  <structure>
   <crystal>
    <varray name="basis" >
     <v>       5.54371716       0.00000000       0.00000000 </v>
     <v>       2.77185858       4.80099990       0.00000000 </v>
     <v>       0.00000000       0.00000000      24.52642611 </v>
    </varray>
    <i name="volume">    652.78028659 </i>
    <varray name="rec_basis" >
     <v>       0.18038438      -0.10414497       0.00000000 </v>
     <v>       0.00000000       0.20828994       0.00000000 </v>
     <v>       0.00000000       0.00000000       0.04077235 </v>
    </varray>
   </crystal>
   <varray name="positions" >
    <v>       0.20782571       0.20782571       0.64900977 </v>
    <v>       0.16666667       0.16666667       0.40772349 </v>
    <v>       0.66666667       0.16666667       0.40772349 </v>
    <v>       0.16666667       0.66666667       0.40772349 </v>
    <v>       0.66666667       0.66666667       0.40772349 </v>
    <v>       0.83333333       0.33333333       0.50000000 </v>
    <v>       0.33333333       0.33333333       0.50000000 </v>
    <v>       0.83333333       0.83333333       0.50000000 </v>
    <v>       0.33333333       0.83333333       0.50000000 </v>
    <v>       0.00000000       0.00000000       0.59227651 </v>
    <v>       0.50000000       0.00000000       0.59227651 </v>
    <v>       0.00000000       0.50000000       0.59227651 </v>
    <v>       0.50000000       0.50000000       0.59227651 </v>
   </varray>
  </structure>
  <varray name="forces" >
   <v>      -0.76643174      -0.44249957      -0.02198513 </v>
   <v>       0.00461775       0.00266606      -0.56627025 </v>
   <v>       0.01394232      -0.06672240      -0.71682376 </v>
   <v>      -0.05081213       0.04543560      -0.71682376 </v>
   <v>       0.09858494       0.05691804      -0.63043251 </v>
   <v>      -0.11000666       0.08311291      -0.22464377 </v>
   <v>       0.08208759       0.04739329      -0.38522429 </v>
   <v>      -0.09536252      -0.05505757       1.16673885 </v>
   <v>       0.01697456      -0.13682502      -0.22464377 </v>
   <v>      -0.32840732      -0.18960605       0.72630766 </v>
   <v>       0.94148201      -0.41561215       0.67299592 <  <energy>
   <i name="e_fr_energy">    -73.12741827 </i>
   <i name="e_wo_entrp">    -73.11426913 </i>
   <i name="e_0_energy">     -0.03944743 </i>
  </energy>
  <time name="totalsc">  734.95  735.38</time>
 </calculation>
 </v>
   <v>      -0.84360636     -12.93132786      -1.60720955 </v>
   <v>      -2.78376220      -1.60720585      19.  <energy>
   <i name="e_fr_energy">    -73.13007022 </i>
   <i name="e_wo_entrp">    -73.11747047 </i>
   <i name="e_0_energy">     -0.03779923 </i>
  </energy>
  <time name="totalsc">  7  <time name="totalsc">  735.05  735.58</time>
 </calculation>
   <time name="dav">   88.   <time name="dav   <time name="total">   9   <time name="total">   99.37   99.40</time>
   <energy>
    <i name="alphaZ">    341.47239739 </i>
    <i name="ewald">  47209.04088982 </i>
    <i name="hartreedc"> -56475.51243063 </i>
    <i name="XCdc">     65.09143299 </i>
    <i name="pawpsdc">   7411.02376172 </i>
    <i name="pawaedc">  -7103.21731058 </i>
    <i name="eentropy">     -0.02457646 </i>
    <i name="bandstr">   -702.46949721 </i>
    <i name="atom">   9181.23315831 </i>
    <i name="e_fr_energy">    -73.36217465 </i>
    <i name="e_wo_entrp">    -73.33759819 </i>
    <i name="e_0_energy">    -73.35398250 </i>
   </energ   <time name="dav">  106.   <time name="dav">  115.46  115.49</time>
   <time name="total">  123.19  123.26</time>
   <energy>
    <i name="e_fr_energy">    -73.36462635 </i>
    <i name="e_wo_entrp">    -73.33992536 </i>
    <i name="e_0_energy">    -73.35639268 </i>
   </energ   <time name="dav">  116.   <time name="dav">  131.53  131.56</time>
   <time name="total">  139.26  139.31</time>
   <energy>
    <i name="e_fr_energy">    -73.36426925 </i>
    <i name="e_wo_entrp">    -73.33890828 </i>
    <i name="e_0_energy">    -73.35581559 </i>
   </energ   <time name="dav">   84.   <time name="dav">  103.32  103.34</time>
   <time name="total">  111.06  111.14</time>
   <energy>
    <i name="e_fr_energy">    -73.36401309 </i>
    <i name="e_wo_entrp">    -73.33999880 </i>
    <i name="e_0_energy">    -73.35600833 </i>
   </energ   <time name="dav">   69.   <time name="dav">   74.83   74.85</time>
   <time name="total">   82.58   82.61</time>
   <energy>
    <i name="e_fr_energy">    -73.36364264 </i>
    <i name="e_wo_entrp">    -73.33892783 </i>
    <i name="e_0_energy">    -73.35540437 </i>
   </energ   <time name="dav">   61.   <time name="dav">   64.77   64.79</time>
   <time name="total">   65.90   65.93</time>
   <energy>
    <i name="alphaZ">    341.47239739 </i>
    <i name="ewald">  47209.04088982 </i>
    <i name="hartreedc"> -56475.89405378 </i>
    <i name="XCdc">     65.08404298 </i>
    <i name="pawpsdc">   7408.86222168 </i>
    <i name="pawaedc">  -7101.02910202 </i>
    <i name="eentropy">     -0.02477029 </i>
    <i name="bandstr">   -702.10852371 </i>
    <i name="atom">   9181.23315831 </i>
    <i name="e_fr_energy">    -73.36373962 </i>
    <i name="e_wo_entrp">    -73.33896933 </i>
    <i name="e_0_energy">    -73.35548285 </i>  <structure>
   <crystal>  <structure>
   <crystal>
    <varray name="basis" >
     <v>       5.54371716       0.00000000       0.00000000 </v>
     <v>       2.77185858       4.80099990       0.00000000 </v>
     <v>       0.00000000       0.00000000      24.52642611 </v>
    </varray>
    <i name="volume">    652.78028659 </i>
    <varray name="rec_basis" >
     <v>       0.18038438      -0.10414497       0.00000000 </v>
     <v>       0.00000000       0.20828994       0.00000000 </v>
     <v>       0.00000000       0.00000000       0.04077235 </v>
    </varray>
   </crystal>
   <varray name="positions" >
    <v>       0.20754862       0.20754862       0.64947100 </v>
    <v>       0.16666667       0.16666667       0.40772349 </v>
    <v>       0.66666667       0.16666667       0.40772349 </v>
    <v>       0.16666667       0.66666667       0.40772349 </v>
    <v>       0.66666667       0.66666667       0.40772349 </v>
    <v>       0.83333333       0.33333333       0.50000000 </v>
    <v>       0.33333333       0.33333333       0.50000000 </v>
    <v>       0.83333333       0.83333333       0.50000000 </v>
    <v>       0.33333333       0.83333333       0.50000000 </v>
    <v>       0.00000000       0.00000000       0.59227651 </v>
    <v>       0.50000000       0.00000000       0.59227651 </v>
    <v>       0.00000000       0.50000000       0.59227651 </v>
    <v>       0.50000000        <energy>
   <i name="e_fr_energy">    -73.12767075 </i>
   <i name="e_wo_entrp">    -73.11452022 </i>
   <i name="e_0_energy">     -0.03945158 </i>
  </energy>
  <time name="totalsc">  747.26  750.34</time>
  <eigenvalues>
   <array>
    <dimension dim="1">band</dimension>
    <dimension dim="2">kpoint</dimension>
    <dimension dim="3">spin</dimension>
    <field>eigene</field>
    <field>occ</field>
    <set>
     <set comment="spin 1">
      <set comment="kpoint 1">
       <r>  -20.6185    1.0000 </r>
       <r>  -11.2030    1.0000 </r>
       <r>   -9.5066    1.0000 </r>
       <r>   -9.0227    1.0000 </r>
       <r>   -8.7854    1.0000 </r>
       <r>   -8.7059    1.0000 </r>
       <r>   -8.6907    1.0000 </r>
       <r>   -8.6540    1.0000 </r>
       <r>   -8.5435    1.0000 </r>
       <r>   -8.4402    1.0000 </r>
       <r>   -8.1341    1.0000 </r>
       <r>   -8.0226    1.0000 </r>
       <r>   -8.0093    1.0000 </r>
       <r>   -7.9117    1.0000 </r>
       <r>   -7.8113    1.0000 </r>
       <r>   -7.7389    1.0000 </r>
       <r>   -7.3802    1.0000 </r>
       <r>   -6.8379    1.0000 </r>
       <r>   -6.6301    1.0000 </r>
       <r>   -6.3465    1.0000 </r>
       <r>   -6.0970    1.0000 </r>
       <r>   -5.9199    1.0000 </r>
       <r>   -5.8459    1.0000 </r>
       <r>   -5.8111    1.0000 </r>
       <r>   -5.7690    1.0000 </r>
       <r>   -5.6983    1.0000 </r>
       <r>   -5.5494    1.0000 </r>
       <r>   -5.3893    1.0000 </r>
       <r>   -5.3749    1.0000 </r>
       <r>   -5.2846    1.0000 </r>
       <r>   -5.2598    1.0000 </r>
       <r>   -5.1537    1.0000 </r>
       <r>   -5.0608    1.0000 </r>
       <r>   -5.0321    1.0000 </r>
       <r>   -4.9844    1.0000 </r>
       <r>   -4.7282    1.0000 </r>
       <r>   -4.5715    1.0000 </r>
       <r>   -4.4558    1.0000 </r>
       <r>   -4.4317    1.0000 </r>
       <r>   -3.8545    1.0000 </r>
       <r>   -3.6357    1.0000 </r>
       <r>   -3.5899    1.0000 </r>
       <r>   -3.5663    1.0000 </r>
       <r>   -3.5006    1.0000 </r>
       <r>   -3.3352    1.0000 </r>
       <r>   -3.3038    1.0000 </r>
       <r>   -3.0254    1.0000 </r>
       <r>   -2.8999    1.0000 </r>
       <r>   -2.8246    1.0000 </r>
       <r>   -2.5956    1.0004 </r>
       <r>   -2.5248    1.0020 </r>
       <r>   -2.4828    1.0046 </r>
       <r>   -2.3927    1.0182 </r>
       <r>   -2.3515    1.0275 </r>
       <r>   -2.3316    1.0316 </r>
       <r>   -2.2446    1.0215 </r>
       <r>   -2.1464    0.8574 </r>
       <r>   -2.1223    0.7817 </r>
       <r>   -2.0384    0.4470 </r>
       <r>   -2.0135    0.3448 </r>
       <r>   -1.9721    0.1935 </r>
       <r>   -1.8501   -0.0256 </r>
       <r>   -1.8271   -0.0335 </r>
       <r>   -1.7402   -0.0252 </r>
       <r>   -1.6502   -0.0079 </r>
       <r>   -1.5182   -0.0005 </r>
       <r>   -1.3971    0.0000 </r>
       <r>   -1.3157    0.0000 </r>
       <r>   -0.4869    0.0000 </r>
       <r>   -0.4386    0.0000 </r>
       <r>   -0.4144    0.0000 </r>
       <r>    0.0696    0.0000 </r>
       <r>    0.4865    0.0000 </r>
       <r>    1.0648    0.0000 </r>
       <r>    1.6578    0.0000 </r>
      </set>
      <set comment="kpoint 2">
       <r>  -20.6166    1.0000 </r>
       <r>  -11.2052    1.0000 </r>
       <r>   -9.4998    1.0000 </r>
       <r>   -9.0167    1.0000 </r>
       <r>   -8.8238    1.0000 </r>
       <r>   -8.7575    1.0000 </r>
       <r>   -8.6622    1.0000 </r>
       <r>   -8.5992    1.0000 </r>
       <r>   -8.5287    1.0000 </r>
       <r>   -8.4560    1.0000 </r>
       <r>   -8.1324    1.0000 </r>
       <r>   -8.0612    1.0000 </r>
       <r>   -7.9775    1.0000 </r>
       <r>   -7.9108    1.0000 </r>
       <r>   -7.8120    1.0000 </r>
       <r>   -7.7546    1.0000 </r>
       <r>   -7.3836    1.0000 </r>
       <r>   -6.8130    1.0000 </r>
       <r>   -6.6564    1.0000 </r>
       <r>   -6.3479    1.0000 </r>
       <r>   -6.0464    1.0000 </r>
       <r>   -5.9312    1.0000 </r>
       <r>   -5.8441    1.0000 </r>
       <r>   -5.8159    1.0000 </r>
       <r>   -5.7527    1.0000 </r>
       <r>   -5.6860    1.0000 </r>
       <r>   -5.5697    1.0000 </r>
       <r>   -5.4832    1.0000 </r>
       <r>   -5.3456    1.0000 </r>
       <r>   -5.2653    1.0000 </r>
       <r>   -5.2239    1.0000 </r>
       <r>   -5.1603    1.0000 </r>
       <r>   -5.1247    1.0000 </r>
       <r>   -5.0697    1.0000 </r>
       <r>   -4.9253    1.0000 </r>
       <r>   -4.7079    1.0000 </r>
       <r>   -4.6110    1.0000 </r>
       <r>   -4.5070    1.0000 </r>
       <r>   -4.3761    1.0000 </r>
       <r>   -3.7776    1.0000 </r>
       <r>   -3.6236    1.0000 </r>
       <r>   -3.5879    1.0000 </r>
       <r>   -3.5675    1.0000 </r>
       <r>   -3.5268    1.0000 </r>
       <r>   -3.3758    1.0000 </r>
       <r>   -3.3023    1.0000 </r>
       <r>   -3.0272    1.0000 </r>
       <r>   -2.9211    1.0000 </r>
       <r>   -2.8481    1.0000 </r>
       <r>   -2.5798    1.0006 </r>
       <r>   -2.5112    1.0027 </r>
       <r>   -2.4330    1.0106 </r>
       <r>   -2.3996    1.0167 </r>
       <r>   -2.3434    1.0293 </r>
       <r>   -2.2743    1.0334 </r>
       <r>   -2.2431    1.0206 </r>
       <r>   -2.1620    0.8990 </r>
       <r>   -2.1024    0.7101 </r>
       <r>   -2.0749    0.6007 </r>
       <r>   -2.0336    0.4269 </r>
       <r>   -1.9527    0.1350 </r>
       <r>   -1.9027    0.0266 </r>
       <r>   -1.8266   -0.0336 </r>
       <r>   -1.7486   -0.0271 </r>
       <r>   -1.7181   -0.0201 </r>
       <r>   -1.6443   -0.0072 </r>
       <r>   -1.4796   -0.0002 </r>
       <r>   -1.0989    0.0000 </r>
       <r>   -0.5528    0.0000 </r>
       <r>   -0.4133    0.0000 </r>
       <r>   -0.2880    0.0000 </r>
       <r>    0.1838    0.0000 </r>
       <r>    0.6140    0.0000 </r>
       <r>    0.9127    0.0000 </r>
       <r>    1.7219    0.0000 </r>
      </set>
      <set comment="kpoint 3">
       <r>  -20.6076    1.0000 </r>
       <r>  -10.4580    1.0000 </r>
       <r>   -8.9279    1.0000 </r>
       <r>   -8.7879    1.0000 </r>
       <r>   -8.4381    1.0000 </r>
       <r>   -8.3361    1.0000 </r>
       <r>   -8.3064    1.0000 </r>
       <r>   -8.1786    1.0000 </r>
       <r>   -8.0465    1.0000 </r>
       <r>   -7.9201    1.0000 </r>
       <r>   -7.8103    1.0000 </r>
       <r>   -7.7458    1.0000 </r>
       <r>   -7.6338    1.0000 </r>
       <r>   -7.5158    1.0000 </r>
       <r>   -7.3822    1.0000 </r>
       <r>   -7.2163    1.0000 </r>
       <r>   -7.0681    1.0000 </r>
       <r>   -6.7263    1.0000 </r>
       <r>   -6.5820    1.0000 </r>
       <r>   -6.3664    1.0000 </r>
       <r>   -6.3434    1.0000 </r>
       <r>   -6.1597    1.0000 </r>
       <r>   -6.1314    1.0000 </r>
       <r>   -5.9869    1.0000 </r>
       <r>   -5.8093    1.0000 </r>
       <r>   -5.7375    1.0000 </r>
       <r>   -5.7156    1.0000 </r>
       <r>   -5.6462    1.0000 </r>
       <r>   -5.4289    1.0000 </r>
       <r>   -5.4079    1.0000 </r>
       <r>   -5.3281    1.0000 </r>
       <r>   -5.2141    1.0000 </r>
       <r>   -5.1944    1.0000 </r>
       <r>   -4.9837    1.0000 </r>
       <r>   -4.9460    1.0000 </r>
       <r>   -4.8964    1.0000 </r>
       <r>   -4.7961    1.0000 </r>
       <r>   -4.6696    1.0000 </r>
       <r>   -4.4707    1.0000 </r>
       <r>   -4.4218    1.0000 </r>
       <r>   -4.2798    1.0000 </r>
       <r>   -4.2344    1.0000 </r>
       <r>   -4.1799    1.0000 </r>
       <r>   -4.0672    1.0000 </r>
       <r>   -3.9840    1.0000 </r>
       <r>   -3.9409    1.0000 </r>
       <r>   -3.7525    1.0000 </r>
       <r>   -3.6937    1.0000 </r>
       <r>   -3.5864    1.0000 </r>
       <r>   -3.3881    1.0000 </r>
       <r>   -3.2919    1.0000 </r>
       <r>   -3.1794    1.0000 </r>
       <r>   -3.0973    1.0000 </r>
       <r>   -2.9977    1.0000 </r>
       <r>   -2.8679    1.0000 </r>
       <r>   -2.7552    1.0000 </r>
       <r>   -2.6166    1.0002 </r>
       <r>   -2.4979    1.0035 </r>
       <r>   -2.4162    1.0134 </r>
       <r>   -2.3468    1.0286 </r>
       <r>   -2.2666    1.0315 </r>
       <r>   -2.1677    0.9127 </r>
       <r>   -2.1085    0.7328 </r>
       <r>   -2.0623    0.5482 </r>
       <r>   -1.9508    0.1297 </r>
       <r>   -1.9183    0.0537 </r>
       <r>   -1.6856   -0.0134 </r>
       <r>   -1.1085    0.0000 </r>
       <r>   -0.9221    0.0000 </r>
       <r>   -0.6784    0.0000 </r>
       <r>   -0.1560    0.0000 </r>
       <r>    1.1809    0.0000 </r>
       <r>    1.3616    0.0000 </r>
       <r>    1.4360    0.0000 </r>
       <r>    2.0248    0.0000 </r>
      </set>
      <set comment="kpoint 4">
       <r>  -20.6123    1.0000 </r>
       <r>  -10.4489    1.0000 </r>
       <r>   -8.9284    1.0000 </r>
       <r>   -8.7340    1.0000 </r>
       <r>   -8.5100    1.0000 </r>
       <r>   -8.3934    1.0000 </r>
       <r>   -8.2519    1.0000 </r>
       <r>   -8.1196    1.0000 </r>
       <r>   -8.1089    1.0000 </r>
       <r>   -7.9301    1.0000 </r>
       <r>   -7.7914    1.0000 </r>
       <r>   -7.7167    1.0000 </r>
       <r>   -7.6818    1.0000 </r>
       <r>   -7.5188    1.0000 </r>
       <r>   -7.3287    1.0000 </r>
       <r>   -7.2480    1.0000 </r>
       <r>   -7.0154    1.0000 </r>
       <r>   -6.7610    1.0000 </r>
       <r>   -6.5205    1.0000 </r>
       <r>   -6.3971    1.0000 </r>
       <r>   -6.3374    1.0000 </r>
       <r>   -6.2452    1.0000 </r>
       <r>   -6.0686    1.0000 </r>
       <r>   -5.9604    1.0000 </r>
       <r>   -5.8131    1.0000 </r>
       <r>   -5.7512    1.0000 </r>
       <r>   -5.6857    1.0000 </r>
       <r>   -5.5668    1.0000 </r>
       <r>   -5.5100    1.0000 </r>
       <r>   -5.4095    1.0000 </r>
       <r>   -5.2902    1.0000 </r>
       <r>   -5.2450    1.0000 </r>
       <r>   -5.1407    1.0000 </r>
       <r>   -5.0001    1.0000 </r>
       <r>   -4.9415    1.0000 </r>
       <r>   -4.8981    1.0000 </r>
       <r>   -4.8025    1.0000 </r>
       <r>   -4.6598    1.0000 </r>
       <r>   -4.5267    1.0000 </r>
       <r>   -4.4318    1.0000 </r>
       <r>   -4.2797    1.0000 </r>
       <r>   -4.2204    1.0000 </r>
       <r>   -4.1906    1.0000 </r>
       <r>   -4.0811    1.0000 </r>
       <r>   -3.9948    1.0000 </r>
       <r>   -3.9237    1.0000 </r>
       <r>   -3.8222    1.0000 </r>
       <r>   -3.6249    1.0000 </r>
       <r>   -3.5308    1.0000 </r>
       <r>   -3.3969    1.0000 </r>
       <r>   -3.2823    1.0000 </r>
       <r>   -3.2253    1.0000 </r>
       <r>   -3.1068    1.0000 </r>
       <r>   -2.9854    1.0000 </r>
       <r>   -2.8355    1.0000 </r>
       <r>   -2.7283    1.0000 </r>
       <r>   -2.5534    1.0011 </r>
       <r>   -2.5150    1.0025 </r>
       <r>   -2.4553    1.0074 </r>
       <r>   -2.3140    1.0343 </r>
       <r>   -2.2508    1.0251 </r>
       <r>   -2.1462    0.8569 </r>
       <r>   -2.0467    0.4823 </r>
       <r>   -2.0326    0.4229 </r>
       <r>   -1.9849    0.2368 </r>
       <r>   -1.8525   -0.0243 </r>
       <r>   -1.6845   -0.0132 </r>
       <r>   -1.4201    0.0000 </r>
       <r>   -1.0564    0.0000 </r>
       <r>   -0.7260    0.0000 </r>
       <r>   -0.0493    0.0000 </r>
       <r>    0.9857    0.0000 </r>
       <r>    1.2482    0.0000 </r>
       <r>    1.6439    0.0000 </r>
       <r>    2.1156    0.0000 </r>
      </set>
      <set comment="kpoint 5">
       <r>  -20.6029    1.0000 </r>
       <r>  -10.4683    1.0000 </r>
       <r>   -8.9235    1.0000 </r>
       <r>   -8.7604    1.0000 </r>
       <r>   -8.5198    1.0000 </r>
       <r>   -8.3309    1.0000 </r>
       <r>   -8.3120    1.0000 </r>
       <r>   -8.1073    1.0000 </r>
       <r>   -8.0179    1.0000 </r>
       <r>   -7.9148    1.0000 </r>
       <r>   -7.8321    1.0000 </r>
       <r>   -7.7142    1.0000 </r>
       <r>   -7.6695    1.0000 </r>
       <r>   -7.5307    1.0000 </r>
       <r>   -7.3009    1.0000 </r>
       <r>   -7.2578    1.0000 </r>
       <r>   -7.1570    1.0000 </r>
       <r>   -6.7157    1.0000 </r>
       <r>   -6.5684    1.0000 </r>
       <r>   -6.4070    1.0000 </r>
       <r>   -6.3524    1.0000 </r>
       <r>   -6.1732    1.0000 </r>
       <r>   -6.0641    1.0000 </r>
       <r>   -6.0042    1.0000 </r>
       <r>   -5.8510    1.0000 </r>
       <r>   -5.7750    1.0000 </r>
       <r>   -5.7524    1.0000 </r>
       <r>   -5.5963    1.0000 </r>
       <r>   -5.4579    1.0000 </r>
       <r>   -5.4158    1.0000 </r>
       <r>   -5.2910    1.0000 </r>
       <r>   -5.2070    1.0000 </r>
       <r>   -5.1386    1.0000 </r>
       <r>   -5.0215    1.0000 </r>
       <r>   -4.9622    1.0000 </r>
       <r>   -4.9169    1.0000 </r>
       <r>   -4.8492    1.0000 </r>
       <r>   -4.6656    1.0000 </r>
       <r>   -4.4275    1.0000 </r>
       <r>   -4.3686    1.0000 </r>
       <r>   -4.3102    1.0000 </r>
       <r>   -4.2987    1.0000 </r>
       <r>   -4.1824    1.0000 </r>
       <r>   -4.1163    1.0000 </r>
       <r>   -3.9879    1.0000 </r>
       <r>   -3.8652    1.0000 </r>
       <r>   -3.7832    1.0000 </r>
       <r>   -3.6228    1.0000 </r>
       <r>   -3.5621    1.0000 </r>
       <r>   -3.3686    1.0000 </r>
       <r>   -3.2878    1.0000 </r>
       <r>   -3.2459    1.0000 </r>
       <r>   -3.0034    1.0000 </r>
       <r>   -2.9645    1.0000 </r>
       <r>   -2.7997    1.0000 </r>
       <r>   -2.7362    1.0000 </r>
       <r>   -2.6726    1.0001 </r>
       <r>   -2.5790    1.0006 </r>
       <r>   -2.4093    1.0147 </r>
       <r>   -2.3373    1.0305 </r>
       <r>   -2.2609    1.0296 </r>
       <r>   -2.2059    0.9833 </r>
       <r>   -2.1197    0.7730 </r>
       <r>   -2.0496    0.4945 </r>
       <r>   -1.9588    0.1522 </r>
       <r>   -1.8329   -0.0321 </r>
       <r>   -1.6954   -0.0153 </r>
       <r>   -1.2273    0.0000 </r>
       <r>   -0.9851    0.0000 </r>
       <r>   -0.5784    0.0000 </r>
       <r>    0.0277    0.0000 </r>
       <r>    1.1163    0.0000 </r>
       <r>    1.3698    0.0000 </r>
       <r>    1.5596    0.0000 </r>
       <r>    2.2601    0.0000 </r>
      </set>
      <set comment="kpoint 6">
       <r>  -20.5991    1.0000 </r>
       <r>   -9.8565    1.0000 </r>
       <r>   -9.2449    1.0000 </r>
       <r>   -8.4287    1.0000 </r>
       <r>   -8.2597    1.0000 </r>
       <r>   -8.1681    1.0000 </r>
       <r>   -7.9197    1.0000 </r>
       <r>   -7.8154    1.0000 </r>
       <r>   -7.7229    1.0000 </r>
       <r>   -7.6535    1.0000 </r>
       <r>   -7.6156    1.0000 </r>
       <r>   -7.4188    1.0000 </r>
       <r>   -7.3855    1.0000 </r>
       <r>   -7.2756    1.0000 </r>
       <r>   -7.1181    1.0000 </r>
       <r>   -6.9987    1.0000 </r>
       <r>   -6.9065    1.0000 </r>
       <r>   -6.7729    1.0000 </r>
       <r>   -6.6204    1.0000 </r>
       <r>   -6.5923    1.0000 </r>
       <r>   -6.4276    1.0000 </r>
       <r>   -6.3530    1.0000 </r>
       <r>   -6.2871    1.0000 </r>
       <r>   -6.2267    1.0000 </r>
       <r>   -6.0929    1.0000 </r>
       <r>   -6.0135    1.0000 </r>
       <r>   -5.7565    1.0000 </r>
       <r>   -5.6923    1.0000 </r>
       <r>   -5.5359    1.0000 </r>
       <r>   -5.3969    1.0000 </r>
       <r>   -5.3623    1.0000 </r>
       <r>   -5.2718    1.0000 </r>
       <r>   -5.2336    1.0000 </r>
       <r>   -5.2075    1.0000 </r>
       <r>   -5.1040    1.0000 </r>
       <r>   -5.0227    1.0000 </r>
       <r>   -4.9376    1.0000 </r>
       <r>   -4.8241    1.0000 </r>
       <r>   -4.7577    1.0000 </r>
       <r>   -4.6852    1.0000 </r>
       <r>   -4.6202    1.0000 </r>
       <r>   -4.5611    1.0000 </r>
       <r>   -4.4128    1.0000 </r>
       <r>   -4.1713    1.0000 </r>
       <r>   -4.0388    1.0000 </r>
       <r>   -3.9732    1.0000 </r>
       <r>   -3.9081    1.0000 </r>
       <r>   -3.8348    1.0000 </r>
       <r>   -3.7242    1.0000 </r>
       <r>   -3.6459    1.0000 </r>
       <r>   -3.5388    1.0000 </r>
       <r>   -3.4489    1.0000 </r>
       <r>   -3.2950    1.0000 </r>
       <r>   -3.1927    1.0000 </r>
       <r>   -3.0859    1.0000 </r>
       <r>   -3.0221    1.0000 </r>
       <r>   -2.9021    1.0000 </r>
       <r>   -2.7245    1.0000 </r>
       <r>   -2.6495    1.0001 </r>
       <r>   -2.6115    1.0003 </r>
       <r>   -2.3970    1.0172 </r>
       <r>   -2.3042    1.0352 </r>
       <r>   -2.1787    0.9368 </r>
       <r>   -2.0989    0.6967 </r>
       <r>   -1.9848    0.2364 </r>
       <r>   -1.9310    0.0802 </r>
       <r>   -1.6752   -0.0116 </r>
       <r>   -1.1423    0.0000 </r>
       <r>   -0.8786    0.0000 </r>
       <r>   -0.3127    0.0000 </r>
       <r>    0.1970    0.0000 </r>
       <r>    0.6064    0.0000 </r>
       <r>    1.3634    0.0000 </r>
       <r>    2.1692    0.0000 </r>
       <r>    2.4690    0.0000 </r>
      </set>
      <set comment="kpoint 7">
       <r>  -20.6104    1.0000 </r>
       <r>   -9.8117    1.0000 </r>
       <r>   -9.1916    1.0000 </r>
       <r>   -8.5520    1.0000 </r>
       <r>   -8.3094    1.0000 </r>
       <r>   -8.1209    1.0000 </r>
       <r>   -7.9525    1.0000 </r>
       <r>   -7.8486    1.0000 </r>
       <r>   -7.7259    1.0000 </r>
       <r>   -7.6813    1.0000 </r>
       <r>   -7.6134    1.0000 </r>
       <r>   -7.4538    1.0000 </r>
       <r>   -7.4078    1.0000 </r>
       <r>   -7.2319    1.0000 </r>
       <r>   -7.0822    1.0000 </r>
       <r>   -6.9716    1.0000 </r>
       <r>   -6.8119    1.0000 </r>
       <r>   -6.7282    1.0000 </r>
       <r>   -6.5919    1.0000 </r>
       <r>   -6.5140    1.0000 </r>
       <r>   -6.3981    1.0000 </r>
       <r>   -6.3227    1.0000 </r>
       <r>   -6.2878    1.0000 </r>
       <r>   -6.1802    1.0000 </r>
       <r>   -6.0579    1.0000 </r>
       <r>   -5.9346    1.0000 </r>
       <r>   -5.8179    1.0000 </r>
       <r>   -5.6789    1.0000 </r>
       <r>   -5.5727    1.0000 </r>
       <r>   -5.4504    1.0000 </r>
       <r>   -5.3392    1.0000 </r>
       <r>   -5.3183    1.0000 </r>
       <r>   -5.2467    1.0000 </r>
       <r>   -5.2133    1.0000 </r>
       <r>   -5.1285    1.0000 </r>
       <r>   -5.0193    1.0000 </r>
       <r>   -4.9660    1.0000 </r>
       <r>   -4.8207    1.0000 </r>
       <r>   -4.7731    1.0000 </r>
       <r>   -4.7134    1.0000 </r>
       <r>   -4.6075    1.0000 </r>
       <r>   -4.4950    1.0000 </r>
       <r>   -4.4096    1.0000 </r>
       <r>   -4.1575    1.0000 </r>
       <r>   -4.0626    1.0000 </r>
       <r>   -3.9977    1.0000 </r>
       <r>   -3.8863    1.0000 </r>
       <r>   -3.8281    1.0000 </r>
       <r>   -3.7389    1.0000 </r>
       <r>   -3.6297    1.0000 </r>
       <r>   -3.5296    1.0000 </r>
       <r>   -3.4790    1.0000 </r>
       <r>   -3.3047    1.0000 </r>
       <r>   -3.2238    1.0000 </r>
       <r>   -3.0747    1.0000 </r>
       <r>   -3.0346    1.0000 </r>
       <r>   -2.8517    1.0000 </r>
       <r>   -2.7373    1.0000 </r>
       <r>   -2.6773    1.0000 </r>
       <r>   -2.5717    1.0007 </r>
       <r>   -2.3442    1.0291 </r>
       <r>   -2.2632    1.0304 </r>
       <r>   -2.1133    0.7504 </r>
       <r>   -2.0382    0.4462 </r>
       <r>   -1.9848    0.2364 </r>
       <r>   -1.8883    0.0066 </r>
       <r>   -1.7113   -0.0186 </r>
       <r>   -1.6172   -0.0045 </r>
       <r>   -0.9058    0.0000 </r>
       <r>   -0.3314    0.0000 </r>
       <r>   -0.0474    0.0000 </r>
       <r>    0.6405    0.0000 </r>
       <r>    1.4184    0.0000 </r>
       <r>    2.0440    0.0000 </r>
       <r>    2.4889    0.0000 </r>
      </set>
      <set comment="kpoint 8">
       <r>  -20.6010    1.0000 </r>
       <r>   -9.8444    1.0000 </r>
       <r>   -9.2525    1.0000 </r>
       <r>   -8.4467    1.0000 </r>
       <r>   -8.2313    1.0000 </r>
       <r>   -8.1417    1.0000 </r>
       <r>   -7.9661    1.0000 </r>
       <r>   -7.8536    1.0000 </r>
       <r>   -7.7244    1.0000 </r>
       <r>   -7.6516    1.0000 </r>
       <r>   -7.5814    1.0000 </r>
       <r>   -7.4923    1.0000 </r>
       <r>   -7.3853    1.0000 </r>
       <r>   -7.2548    1.0000 </r>
       <r>   -7.0967    1.0000 </r>
       <r>   -6.9686    1.0000 </r>
       <r>   -6.8803    1.0000 </r>
       <r>   -6.7366    1.0000 </r>
       <r>   -6.6350    1.0000 </r>
       <r>   -6.5704    1.0000 </r>
       <r>   -6.4282    1.0000 </r>
       <r>   -6.3684    1.0000 </r>
       <r>   -6.2667    1.0000 </r>
       <r>   -6.2250    1.0000 </r>
       <r>   -6.1112    1.0000 </r>
       <r>   -5.9903    1.0000 </r>
       <r>   -5.7660    1.0000 </r>
       <r>   -5.6942    1.0000 </r>
       <r>   -5.5338    1.0000 </r>
       <r>   -5.4458    1.0000 </r>
       <r>   -5.3431    1.0000 </r>
       <r>   -5.2818    1.0000 </r>
       <r>   -5.2343    1.0000 </r>
       <r>   -5.1984    1.0000 </r>
       <r>   -5.0946    1.0000 </r>
       <r>   -5.0498    1.0000 </r>
       <r>   -4.9033    1.0000 </r>
       <r>   -4.8147    1.0000 </r>
       <r>   -4.7537    1.0000 </r>
       <r>   -4.6789    1.0000 </r>
       <r>   -4.6365    1.0000 </r>
       <r>   -4.5473    1.0000 </r>
       <r>   -4.3890    1.0000 </r>
       <r>   -4.1446    1.0000 </r>
       <r>   -4.1056    1.0000 </r>
       <r>   -3.9771    1.0000 </r>
       <r>   -3.8826    1.0000 </r>
       <r>   -3.7918    1.0000 </r>
       <r>   -3.7584    1.0000 </r>
       <r>   -3.6422    1.0000 </r>
       <r>   -3.5445    1.0000 </r>
       <r>   -3.4888    1.0000 </r>
       <r>   -3.3580    1.0000 </r>
       <r>   -3.2342    1.0000 </r>
       <r>   -3.1055    1.0000 </r>
       <r>   -2.9752    1.0000 </r>
       <r>   -2.8881    1.0000 </r>
       <r>   -2.7327    1.0000 </r>
       <r>   -2.6832    1.0000 </r>
       <r>   -2.5624    1.0009 </r>
       <r>   -2.3482    1.0282 </r>
       <r>   -2.3274    1.0324 </r>
       <r>   -2.1450    0.8534 </r>
       <r>   -2.1014    0.7064 </r>
       <r>   -2.0336    0.4269 </r>
       <r>   -1.9276    0.0727 </r>
       <r>   -1.6633   -0.0097 </r>
       <r>   -1.0932    0.0000 </r>
       <r>   -0.8791    0.0000 </r>
       <r>   -0.3842    0.0000 </r>
       <r>    0.1472    0.0000 </r>
       <r>    0.6511    0.0000 </r>
       <r>    1.3678    0.0000 </r>
       <r>    2.0097    0.0000 </r>
       <r>    2.5494    0.0000 </r>
      </set>
      <set comment="kpoint 9">
       <r>  -20.6103    1.0000 </r>
       <r>  -10.9485    1.0000 </r>
       <r>   -9.2443    1.0000 </r>
       <r>   -8.7946    1.0000 </r>
       <r>   -8.7609    1.0000 </r>
       <r>   -8.7038    1.0000 </r>
       <r>   -8.5356    1.0000 </r>
       <r>   -8.3770    1.0000 </r>
       <r>   -8.3170    1.0000 </r>
       <r>   -8.2822    1.0000 </r>
       <r>   -8.0243    1.0000 </r>
       <r>   -7.9768    1.0000 </r>
       <r>   -7.8742    1.0000 </r>
       <r>   -7.7589    1.0000 </r>
       <r>   -7.6104    1.0000 </r>
       <r>   -7.5653    1.0000 </r>
       <r>   -7.3409    1.0000 </r>
       <r>   -6.7132    1.0000 </r>
       <r>   -6.6722    1.0000 </r>
       <r>   -6.3496    1.0000 </r>
       <r>   -6.0400    1.0000 </r>
       <r>   -5.9608    1.0000 </r>
       <r>   -5.9230    1.0000 </r>
       <r>   -5.8459    1.0000 </r>
       <r>   -5.7719    1.0000 </r>
       <r>   -5.7510    1.0000 </r>
       <r>   -5.5974    1.0000 </r>
       <r>   -5.5101    1.0000 </r>
       <r>   -5.3628    1.0000 </r>
       <r>   -5.3186    1.0000 </r>
       <r>   -5.2823    1.0000 </r>
       <r>   -5.2243    1.0000 </r>
       <r>   -5.1036    1.0000 </r>
       <r>   -5.0435    1.0000 </r>
       <r>   -4.9263    1.0000 </r>
       <r>   -4.8313    1.0000 </r>
       <r>   -4.7958    1.0000 </r>
       <r>   -4.6464    1.0000 </r>
       <r>   -4.4243    1.0000 </r>
       <r>   -3.9454    1.0000 </r>
       <r>   -3.9133    1.0000 </r>
       <r>   -3.8103    1.0000 </r>
       <r>   -3.6872    1.0000 </r>
       <r>   -3.6740    1.0000 </r>
       <r>   -3.4830    1.0000 </r>
       <r>   -3.4596    1.0000 </r>
       <r>   -3.3949    1.0000 </r>
       <r>   -3.2960    1.0000 </r>
       <r>   -3.1946    1.0000 </r>
       <r>   -3.1144    1.0000 </r>
       <r>   -2.8095    1.0000 </r>
       <r>   -2.7094    1.0000 </r>
       <r>   -2.6445    1.0001 </r>
       <r>   -2.5549    1.0011 </r>
       <r>   -2.5339    1.0017 </r>
       <r>   -2.4718    1.0056 </r>
       <r>   -2.4361    1.0101 </r>
       <r>   -2.4130    1.0140 </r>
       <r>   -2.2345    1.0144 </r>
       <r>   -2.2163    0.9966 </r>
       <r>   -2.1742    0.9272 </r>
       <r>   -2.0059    0.3147 </r>
       <r>   -1.9662    0.1747 </r>
       <r>   -1.9316    0.0816 </r>
       <r>   -1.8265   -0.0336 </r>
       <r>   -1.5805   -0.0022 </r>
       <r>   -1.4234    0.0000 </r>
       <r>   -1.2984    0.0000 </r>
       <r>   -0.9287    0.0000 </r>
       <r>   -0.8070    0.0000 </r>
       <r>   -0.0031    0.0000 </r>
       <r>    0.7606    0.0000 </r>
       <r>    0.8862    0.0000 </r>
       <r>    1.6114    0.0000 </r>
       <r>    1.8265    0.0000 </r>
      </set>
      <set comment="kpoint 10">
       <r>  -20.6149    1.0000 </r>
       <r>  -10.9420    1.0000 </r>
       <r>   -9.2676    1.0000 </r>
       <r>   -8.7881    1.0000 </r>
       <r>   -8.7392    1.0000 </r>
       <r>   -8.6366    1.0000 </r>
       <r>   -8.5438    1.0000 </r>
       <r>   -8.4385    1.0000 </r>
       <r>   -8.3774    1.0000 </r>
       <r>   -8.2494    1.0000 </r>
       <r>   -8.0089    1.0000 </r>
       <r>   -7.9552    1.0000 </r>
       <r>   -7.8754    1.0000 </r>
       <r>   -7.7661    1.0000 </r>
       <r>   -7.6565    1.0000 </r>
       <r>   -7.4883    1.0000 </r>
       <r>   -7.3340    1.0000 </r>
       <r>   -6.7861    1.0000 </r>
       <r>   -6.6052    1.0000 </r>
       <r>   -6.3371    1.0000 </r>
       <r>   -6.0927    1.0000 </r>
       <r>   -6.0140    1.0000 </r>
       <r>   -5.9355    1.0000 </r>
       <r>   -5.8249    1.0000 </r>
       <r>   -5.7703    1.0000 </r>
       <r>   -5.7416    1.0000 </r>
       <r>   -5.5432    1.0000 </r>
       <r>   -5.4311    1.0000 </r>
       <r>   -5.3406    1.0000 </r>
       <r>   -5.3233    1.0000 </r>
       <r>   -5.2711    1.0000 </r>
       <r>   -5.2256    1.0000 </r>
       <r>   -5.1409    1.0000 </r>
       <r>   -5.0633    1.0000 </r>
       <r>   -4.9214    1.0000 </r>
       <r>   -4.8170    1.0000 </r>
       <r>   -4.7599    1.0000 </r>
       <r>   -4.5631    1.0000 </r>
       <r>   -4.5126    1.0000 </r>
       <r>   -4.0486    1.0000 </r>
       <r>   -3.9041    1.0000 </r>
       <r>   -3.7775    1.0000 </r>
       <r>   -3.6982    1.0000 </r>
       <r>   -3.6588    1.0000 </r>
       <r>   -3.5024    1.0000 </r>
       <r>   -3.4297    1.0000 </r>
       <r>   -3.3588    1.0000 </r>
       <r>   -3.3000    1.0000 </r>
       <r>   -3.1952    1.0000 </r>
       <r>   -3.1332    1.0000 </r>
       <r>   -2.8537    1.0000 </r>
       <r>   -2.7213    1.0000 </r>
       <r>   -2.6198    1.0002 </r>
       <r>   -2.6069    1.0003 </r>
       <r>   -2.5702    1.0007 </r>
       <r>   -2.4692    1.0059 </r>
       <r>   -2.3815    1.0206 </r>
       <r>   -2.3016    1.0353 </r>
       <r>   -2.2390    1.0178 </r>
       <r>   -2.1983    0.9721 </r>
       <r>   -2.1341    0.8206 </r>
       <r>   -2.0700    0.5805 </r>
       <r>   -1.9836    0.2324 </r>
       <r>   -1.9146    0.0468 </r>
       <r>   -1.8324   -0.0323 </r>
       <r>   -1.6613   -0.0094 </r>
       <r>   -1.3445    0.0000 </r>
       <r>   -1.2745    0.0000 </r>
       <r>   -1.0574    0.0000 </r>
       <r>   -0.6497    0.0000 </r>
       <r>   -0.2169    0.0000 </r>
       <r>    0.4317    0.0000 </r>
       <r>    0.9891    0.0000 </r>
       <r>    1.6388    0.0000 </r>
       <r>    1.8430    0.0000 </r>
      </set>
      <set comment="kpoint 11">
       <r>  -20.6130    1.0000 </r>
       <r>  -10.2259    1.0000 </r>
       <r>   -9.0638    1.0000 </r>
       <r>   -8.7441    1.0000 </r>
       <r>   -8.3317    1.0000 </r>
       <r>   -8.2113    1.0000 </r>
       <r>   -8.1260    1.0000 </r>
       <r>   -8.0800    1.0000 </r>
       <r>   -7.9244    1.0000 </r>
       <r>   -7.8545    1.0000 </r>
       <r>   -7.7687    1.0000 </r>
       <r>   -7.6072    1.0000 </r>
       <r>   -7.5775    1.0000 </r>
       <r>   -7.4240    1.0000 </r>
       <r>   -7.1928    1.0000 </r>
       <r>   -7.1653    1.0000 </r>
       <r>   -6.8167    1.0000 </r>
       <r>   -6.7645    1.0000 </r>
       <r>   -6.5397    1.0000 </r>
       <r>   -6.4152    1.0000 </r>
       <r>   -6.3864    1.0000 </r>
       <r>   -6.2814    1.0000 </r>
       <r>   -6.1033    1.0000 </r>
       <r>   -6.0325    1.0000 </r>
       <r>   -5.8879    1.0000 </r>
       <r>   -5.8656    1.0000 </r>
       <r>   -5.7730    1.0000 </r>
       <r>   -5.5771    1.0000 </r>
       <r>   -5.4825    1.0000 </r>
       <r>   -5.4030    1.0000 </r>
       <r>   -5.3323    1.0000 </r>
       <r>   -5.1170    1.0000 </r>
       <r>   -5.1115    1.0000 </r>
       <r>   -5.0344    1.0000 </r>
       <r>   -4.8909    1.0000 </r>
       <r>   -4.8344    1.0000 </r>
       <r>   -4.8044    1.0000 </r>
       <r>   -4.7844    1.0000 </r>
       <r>   -4.6906    1.0000 </r>
       <r>   -4.4958    1.0000 </r>
       <r>   -4.4600    1.0000 </r>
       <r>   -4.4214    1.0000 </r>
       <r>   -4.3910    1.0000 </r>
       <r>   -4.3038    1.0000 </r>
       <r>   -3.9965    1.0000 </r>
       <r>   -3.9960    1.0000 </r>
       <r>   -3.9608    1.0000 </r>
       <r>   -3.6875    1.0000 </r>
       <r>   -3.6559    1.0000 </r>
       <r>   -3.5261    1.0000 </r>
       <r>   -3.3424    1.0000 </r>
       <r>   -3.3362    1.0000 </r>
       <r>   -3.2325    1.0000 </r>
       <r>   -3.0677    1.0000 </r>
       <r>   -3.0530    1.0000 </r>
       <r>   -2.9585    1.0000 </r>
       <r>   -2.8830    1.0000 </r>
       <r>   -2.6764    1.0000 </r>
       <r>   -2.6753    1.0000 </r>
       <r>   -2.5918    1.0004 </r>
       <r>   -2.2467    1.0228 </r>
       <r>   -2.2386    1.0175 </r>
       <r>   -2.0957    0.6843 </r>
       <r>   -2.0073    0.3202 </r>
       <r>   -1.8841    0.0018 </r>
       <r>   -1.7809   -0.0334 </r>
       <r>   -1.5993   -0.0032 </r>
       <r>   -1.5121   -0.0005 </r>
       <r>   -0.6408    0.0000 </r>
       <r>    0.0442    0.0000 </r>
       <r>    0.1910    0.0000 </r>
       <r>    0.5463    0.0000 </r>
       <r>    1.1271    0.0000 </r>
       <r>    1.3446    0.0000 </r>
       <r>    2.1425    0.0000 </r>
      </set>
      <set comment="kpoint 12">
       <r>  -20.6017    1.0000 </r>
       <r>  -10.2529    1.0000 </r>
       <r>   -9.1292    1.0000 </r>
       <r>   -8.6471    1.0000 </r>
       <r>   -8.3250    1.0000 </r>
       <r>   -8.2687    1.0000 </r>
       <r>   -8.1532    1.0000 </r>
       <r>   -7.9752    1.0000 </r>
       <r>   -7.8962    1.0000 </r>
       <r>   -7.8269    1.0000 </r>
       <r>   -7.7878    1.0000 </r>
       <r>   -7.6266    1.0000 </r>
       <r>   -7.5204    1.0000 </r>
       <r>   -7.4736    1.0000 </r>
       <r>   -7.2391    1.0000 </r>
       <r>   -7.0913    1.0000 </r>
       <r>   -7.0329    1.0000 </r>
       <r>   -6.7065    1.0000 </r>
       <r>   -6.5326    1.0000 </r>
       <r>   -6.4726    1.0000 </r>
       <r>   -6.3637    1.0000 </r>
       <r>   -6.2612    1.0000 </r>
       <r>   -6.1315    1.0000 </r>
       <r>   -6.0762    1.0000 </r>
       <r>   -5.9705    1.0000 </r>
       <r>   -5.9345    1.0000 </r>
       <r>   -5.7248    1.0000 </r>
       <r>   -5.6394    1.0000 </r>
       <r>   -5.4567    1.0000 </r>
       <r>   -5.3502    1.0000 </r>
       <r>   -5.2752    1.0000 </r>
       <r>   -5.1700    1.0000 </r>
       <r>   -5.0951    1.0000 </r>
       <r>   -4.9957    1.0000 </r>
       <r>   -4.9423    1.0000 </r>
       <r>   -4.8907    1.0000 </r>
       <r>   -4.8189    1.0000 </r>
       <r>   -4.7334    1.0000 </r>
       <r>   -4.5966    1.0000 </r>
       <r>   -4.5125    1.0000 </r>
       <r>   -4.4670    1.0000 </r>
       <r>   -4.4172    1.0000 </r>
       <r>   -4.3735    1.0000 </r>
       <r>   -4.2821    1.0000 </r>
       <r>   -4.0874    1.0000 </r>
       <r>   -3.9512    1.0000 </r>
       <r>   -3.8329    1.0000 </r>
       <r>   -3.7707    1.0000 </r>
       <r>   -3.6980    1.0000 </r>
       <r>   -3.4879    1.0000 </r>
       <r>   -3.3924    1.0000 </r>
       <r>   -3.2995    1.0000 </r>
       <r>   -3.2236    1.0000 </r>
       <r>   -3.1590    1.0000 </r>
       <r>   -3.0147    1.0000 </r>
       <r>   -2.9381    1.0000 </r>
       <r>   -2.8656    1.0000 </r>
       <r>   -2.7861    1.0000 </r>
       <r>   -2.6785    1.0000 </r>
       <r>   -2.5888    1.0005 </r>
       <r>   -2.3320    1.0316 </r>
       <r>   -2.2183    0.9989 </r>
       <r>   -2.0875    0.6522 </r>
       <r>   -2.0584    0.5315 </r>
       <r>   -1.9838    0.2330 </r>
       <r>   -1.8189   -0.0347 </r>
       <r>   -1.6044   -0.0035 </r>
       <r>   -0.9780    0.0000 </r>
       <r>   -0.3854    0.0000 </r>
       <r>    0.0943    0.0000 </r>
       <r>    0.1904    0.0000 </r>
       <r>    0.6948    0.0000 </r>
       <r>    1.0350    0.0000 </r>
       <r>    1.4043    0.0000 </r>
       <r>    1.9472    0.0000 </r>
      </set>
      <set comment="kpoint 13">
       <r>  -20.6050    1.0000 </r>
       <r>   -9.3268    1.0000 </r>
       <r>   -9.1950    1.0000 </r>
       <r>   -8.7258    1.0000 </r>
       <r>   -8.2248    1.0000 </r>
       <r>   -7.9448    1.0000 </r>
       <r>   -7.8777    1.0000 </r>
       <r>   -7.6338    1.0000 </r>
       <r>   -7.5099    1.0000 </r>
       <r>   -7.4473    1.0000 </r>
       <r>   -7.3835    1.0000 </r>
       <r>   -7.3382    1.0000 </r>
       <r>   -7.2565    1.0000 </r>
       <r>   -7.1250    1.0000 </r>
       <r>   -7.0370    1.0000 </r>
       <r>   -6.9047    1.0000 </r>
       <r>   -6.8732    1.0000 </r>
       <r>   -6.7889    1.0000 </r>
       <r>   -6.7661    1.0000 </r>
       <r>   -6.6406    1.0000 </r>
       <r>   -6.5590    1.0000 </r>
       <r>   -6.3946    1.0000 </r>
       <r>   -6.3295    1.0000 </r>
       <r>   -6.2762    1.0000 </r>
       <r>   -6.0903    1.0000 </r>
       <r>   -5.9912    1.0000 </r>
       <r>   -5.8993    1.0000 </r>
       <r>   -5.8239    1.0000 </r>
       <r>   -5.7465    1.0000 </r>
       <r>   -5.6870    1.0000 </r>
       <r>   -5.6575    1.0000 </r>
       <r>   -5.5659    1.0000 </r>
       <r>   -5.5081    1.0000 </r>
       <r>   -5.4442    1.0000 </r>
       <r>   -5.0725    1.0000 </r>
       <r>   -5.0238    1.0000 </r>
       <r>   -4.9433    1.0000 </r>
       <r>   -4.8915    1.0000 </r>
       <r>   -4.8322    1.0000 </r>
       <r>   -4.7807    1.0000 </r>
       <r>   -4.6789    1.0000 </r>
       <r>   -4.5680    1.0000 </r>
       <r>   -4.2315    1.0000 </r>
       <r>   -4.1685    1.0000 </r>
       <r>   -4.0319    1.0000 </r>
       <r>   -4.0169    1.0000 </r>
       <r>   -3.7509    1.0000 </r>
       <r>   -3.6863    1.0000 </r>
       <r>   -3.6802    1.0000 </r>
       <r>   -3.5530    1.0000 </r>
       <r>   -3.5200    1.0000 </r>
       <r>   -3.3629    1.0000 </r>
       <r>   -3.2303    1.0000 </r>
       <r>   -3.1156    1.0000 </r>
       <r>   -2.9899    1.0000 </r>
       <r>   -2.8682    1.0000 </r>
       <r>   -2.7055    1.0000 </r>
       <r>   -2.7037    1.0000 </r>
       <r>   -2.5940    1.0004 </r>
       <r>   -2.5286    1.0019 </r>
       <r>   -2.4957    1.0036 </r>
       <r>   -2.3629    1.0249 </r>
       <r>   -2.2669    1.0316 </r>
       <r>   -2.2522    1.0258 </r>
       <r>   -2.2132    0.9930 </r>
       <r>   -2.1407    0.8407 </r>
       <r>   -1.9193    0.0557 </r>
       <r>   -1.8934    0.0133 </r>
       <r>   -1.5799   -0.0022 </r>
       <r>   -0.6732    0.0000 </r>
       <r>    0.0726    0.0000 </r>
       <r>    0.7912    0.0000 </r>
       <r>    1.2193    0.0000 </r>
       <r>    2.5173    0.0000 </r>
       <r>    3.2491    0.0000 </r>
      </set>
      <set comment="kpoint 14">
       <r>  -20.6003    1.0000 </r>
       <r>   -9.3791    1.0000 </r>
       <r>   -9.2147    1.0000 </r>
       <r>   -8.6781    1.0000 </r>
       <r>   -8.1136    1.0000 </r>
       <r>   -7.9607    1.0000 </r>
       <r>   -7.8459    1.0000 </r>
       <r>   -7.6262    1.0000 </r>
       <r>   -7.5408    1.0000 </r>
       <r>   -7.4561    1.0000 </r>
       <r>   -7.3944    1.0000 </r>
       <r>   -7.3571    1.0000 </r>
       <r>   -7.2343    1.0000 </r>
       <r>   -7.1255    1.0000 </r>
       <r>   -7.0566    1.0000 </r>
       <r>   -6.9592    1.0000 </r>
       <r>   -6.8934    1.0000 </r>
       <r>   -6.7723    1.0000 </r>
       <r>   -6.7480    1.0000 </r>
       <r>   -6.6962    1.0000 </r>
       <r>   -6.6156    1.0000 </r>
       <r>   -6.4592    1.0000 </r>
       <r>   -6.3444    1.0000 </r>
       <r>   -6.2367    1.0000 </r>
       <r>   -6.0851    1.0000 </r>
       <r>   -5.9662    1.0000 </r>
       <r>   -5.8744    1.0000 </r>
       <r>   -5.8247    1.0000 </r>
       <r>   -5.7794    1.0000 </r>
       <r>   -5.6982    1.0000 </r>
       <r>   -5.6472    1.0000 </r>
       <r>   -5.5913    1.0000 </r>
       <r>   -5.5083    1.0000 </r>
       <r>   -5.4172    1.0000 </r>
       <r>   -5.0733    1.0000 </r>
       <r>   -4.9854    1.0000 </r>
       <r>   -4.8950    1.0000 </r>
       <r>   -4.8687    1.0000 </r>
       <r>   -4.8487    1.0000 </r>
       <r>   -4.7606    1.0000 </r>
       <r>   -4.6946    1.0000 </r>
       <r>   -4.5977    1.0000 </r>
       <r>   -4.2320    1.0000 </r>
       <r>   -4.1910    1.0000 </r>
       <r>   -4.0742    1.0000 </r>
       <r>   -3.9384    1.0000 </r>
       <r>   -3.8317    1.0000 </r>
       <r>   -3.6844    1.0000 </r>
       <r>   -3.6579    1.0000 </r>
       <r>   -3.5809    1.0000 </r>
       <r>   -3.5133    1.0000 </r>
       <r>   -3.3350    1.0000 </r>
       <r>   -3.1863    1.0000 </r>
       <r>   -3.1053    1.0000 </r>
       <r>   -3.0507    1.0000 </r>
       <r>   -2.8498    1.0000 </r>
       <r>   -2.7187    1.0000 </r>
       <r>   -2.6737    1.0000 </r>
       <r>   -2.6189    1.0002 </r>
       <r>   -2.5283    1.0019 </r>
       <r>   -2.4208    1.0126 </r>
       <r>   -2.4078    1.0150 </r>
       <r>   -2.3236    1.0330 </r>
       <r>   -2.2652    1.0310 </r>
       <r>   -2.2212    1.0021 </r>
       <r>   -2.1323    0.8147 </r>
       <r>   -1.9559    0.1440 </r>
       <r>   -1.7842   -0.0339 </r>
       <r>   -1.4906   -0.0003 </r>
       <r>   -0.7134    0.0000 </r>
       <r>    0.3416    0.0000 </r>
       <r>    0.5648    0.0000 </r>
       <r>    1.3153    0.0000 </r>
       <r>    2.5312    0.0000 </r>
       <r>    3.2754    0.0000 </r>
      </set>
     </set>
    </set>
   </array>
  </eigenvalues>
  <separator name="orbital magnetization" >
   <v name="MAGDIPOLOUT">      0.00000000      0.00000000      0.00000000</v>
  </separator>
 </calculation>
 <structure name="finalpos" >
  <crystal>
   <varray name="basis" >
    <v>       5.54371716       0.00000000       0.00000000 </v>
    <v>       2.77185858       4.80099990       0.00000000 </v>
    <v>       0.00000000       0.00000000      24.52642611 </v>
   </varray>
   <i name="volume">    652.78028659 </i>
   <varray name="rec_basis" >
    <v>       0.18038438      -0.10414497       0.00000000 </v>
    <v>       0.00000000       0.20828994       0.00000000 </v>
    <v>       0.00000000       0.00000000       0.04077235 </v>
   </varray>
  </crystal>
  <varray name="positions" >
   <v>       0.24980679       0.24980679       0.65147988 </v>
   <v>       0.16666667       0.16666667       0.40772349 </v>
   <v>       0.66666667       0.16666667       0.40772349 </v>
   <v>       0.16666667       0.66666667       0.40772349 </v>
   <v>       0.66666667       0.66666667       0.40772349 </v>
   <v>       0.83333333       0.33333333       0.50000000 </v>
   <v>       0.33333333       0.33333333       0.50000000 </v>
   <v>       0.83333333       0.83333333       0.50000000 </v>
   <v>       0.33333333       0.83333333       0.50000  <crysta      <varray name="basis" >
    <v>       5.54371716       0.00000000       0.00000000 </v>
    <v>       2.77185858       4.80099990       0.00000000 </v>
    <v>       0.00000000       0.00000000      24.52642611 </v>
   </varray>
   <i name="volume">    652.78028659 </i>
   <varray name="rec_basis" >
    <v>       0.18038438      -0.10414497       0.00000000 </v>
    <v>       0.00000000       0.20828994       0.   <v type="lo    <v>       0.0000000   <v type="logical" >  F  F  F </v>
   <v type="logic  </crystal>
  <varray name="positions" >
   <v>       0.29204367       0.29204367       0.650   <v type=   <v>       0.16666667      <v type="logical" >  F  F  F </v>
   <v type="logical" >  F  F  F </v>
   <v type="logical" >  F  F  F </v>
   <v type="logical" >  F  F  F </v>
  </varray>
  <nose>
   <v>      -3.00000000       0.00000000       0.00010000       0.00010000 </v>
  </nose>
 </structure>
</modeling>
/v>
   <v>       0.33333333       0.33333333       0.50000000 </v>
   <v>       0.83333333       0.83333333       0.50000000 </v>
   <v>       0.33333333       0.83333333       0.50000000 </v>
   <v>       0.00000000       0.00000000       0.59227651 </v>
   <v>       0.50000000       0.00000000       0.59227651 </v>
   <v>       0.00000000       0.50000000       0.59227651 </v>
   <v>       0.50000000       0.50000000       0.59227651 </v>
  </varray>
  <varray name="selective"  type="logical" >
   <v type="logical" >  T  T  T </v>
   <v type="logical" >  F  F  F </v>
   <v type="logical" >  F  F  F </v>
   <v type="logical" >  F  F  F </v>
   <v type="logical" >  F  F  F </v>
   <v type="logical" >  F  F  F </v>
   <v type="logical" >  F  F  F </v>
   <v type="logical" >  F  F  F </v>
   <v type="logical" >  F  F  F </v>
   <v type="logical" >  F  F  F </v>
   <v type="logical" >  F  F  F </v>
   <v type="logical" >  F  F  F </v>
   <v type="logical" >  F  F  F </v>
  </varray>
  <nose>
   <v>      -3.00000000       0.00000000       0.00010000       0.00010000 </v>
  </nose>
 </structure>
</modeling>
 </structure>
</modeling>
